       N       E                     dE             d eps       ncg     rms          rms(c)
DAV:   1     0.217738565599E+04    0.21774E+04   -0.28943E+05 11632   0.143E+03
DAV:   2    -0.119758326380E+04   -0.33750E+04   -0.32394E+04 13444   0.295E+02
DAV:   3    -0.162340401121E+04   -0.42582E+03   -0.39257E+03 17920   0.817E+01
DAV:   4    -0.164797286535E+04   -0.24569E+02   -0.22842E+02 16312   0.172E+01
DAV:   5    -0.164903675764E+04   -0.10639E+01   -0.10443E+01 17840   0.419E+00    0.411E+01
DAV:   6    -0.160715441156E+04    0.41882E+02   -0.13736E+02 17792   0.161E+01    0.232E+01
DAV:   7    -0.159588620183E+04    0.11268E+02   -0.10035E+02 18792   0.165E+01    0.178E+01
DAV:   8    -0.158467708860E+04    0.11209E+02   -0.62600E+01 17144   0.121E+01    0.999E+00
DAV:   9    -0.157942709182E+04    0.52500E+01   -0.25474E+01 16544   0.802E+00    0.287E+00
DAV:  10    -0.157943602680E+04   -0.89350E-02   -0.47794E+00 16680   0.315E+00    0.168E+00
DAV:  11    -0.157942261249E+04    0.13414E-01   -0.64477E-01 15752   0.125E+00    0.125E+00
DAV:  12    -0.157939143421E+04    0.31178E-01   -0.23668E-01 14304   0.741E-01    0.649E-01
DAV:  13    -0.157937967751E+04    0.11757E-01   -0.58645E-02 14320   0.415E-01    0.327E-01
DAV:  14    -0.157937693122E+04    0.27463E-02   -0.20849E-02 16776   0.231E-01    0.188E-01
DAV:  15    -0.157937561353E+04    0.13177E-02   -0.74948E-03 15160   0.137E-01    0.794E-02
DAV:  16    -0.157937559770E+04    0.15827E-04   -0.23034E-03 15944   0.689E-02    0.444E-02
DAV:  17    -0.157937559011E+04    0.75937E-05   -0.56350E-04 16224   0.406E-02    0.293E-02
DAV:  18    -0.157937555947E+04    0.30643E-04   -0.20468E-04 16200   0.255E-02    0.157E-02
DAV:  19    -0.157937554561E+04    0.13863E-04   -0.61387E-05 11640   0.124E-02    0.717E-03
DAV:  20    -0.157937554385E+04    0.17523E-05   -0.18671E-05  7184   0.705E-03
   1 F= -.15793755E+04 E0= -.15793817E+04  d E =-.157938E+04
       N       E                     dE             d eps       ncg     rms          rms(c)
DAV:   1    -0.158487332742E+04   -0.54978E+01   -0.16076E+03 11592   0.605E+01    0.220E+01
DAV:   2    -0.156688518339E+04    0.17988E+02   -0.10688E+02 18096   0.139E+01    0.130E+01
DAV:   3    -0.156156878769E+04    0.53164E+01   -0.58611E+01 19448   0.110E+01    0.955E+00
DAV:   4    -0.155772100617E+04    0.38478E+01   -0.21289E+01 19968   0.690E+00    0.632E+00
DAV:   5    -0.155599284150E+04    0.17282E+01   -0.12488E+01 17176   0.455E+00    0.251E+00
DAV:   6    -0.155581241716E+04    0.18042E+00   -0.25593E+00 17056   0.233E+00    0.155E+00
DAV:   7    -0.155576174078E+04    0.50676E-01   -0.51940E-01 15800   0.111E+00    0.104E+00
DAV:   8    -0.155575106961E+04    0.10671E-01   -0.16870E-01 17488   0.487E-01    0.553E-01
DAV:   9    -0.155575754463E+04   -0.64750E-02   -0.94457E-02 18048   0.336E-01    0.336E-01
DAV:  10    -0.155575836384E+04   -0.81921E-03   -0.25572E-02 16696   0.252E-01    0.277E-01
DAV:  11    -0.155575553480E+04    0.28290E-02   -0.12151E-02 18352   0.155E-01    0.119E-01
DAV:  12    -0.155575544214E+04    0.92654E-04   -0.46664E-03 18440   0.789E-02    0.626E-02
DAV:  13    -0.155575562100E+04   -0.17886E-03   -0.11052E-03 17504   0.465E-02    0.466E-02
DAV:  14    -0.155575570750E+04   -0.86503E-04   -0.55779E-04 17008   0.328E-02    0.225E-02
DAV:  15    -0.155575571884E+04   -0.11337E-04   -0.17120E-04 15320   0.173E-02    0.140E-02
DAV:  16    -0.155575571784E+04    0.10035E-05   -0.35204E-05  8128   0.971E-03
   2 F= -.15557557E+04 E0= -.15557574E+04  d E =0.236198E+02
       N       E                     dE             d eps       ncg     rms          rms(c)
DAV:   1    -0.159909281570E+04   -0.43337E+02   -0.74461E+02 11592   0.456E+01    0.152E+01
DAV:   2    -0.158908288059E+04    0.10010E+02   -0.28315E+01 16730   0.844E+00    0.725E+00
DAV:   3    -0.158768307903E+04    0.13998E+01   -0.15222E+01 17320   0.603E+00    0.587E+00
DAV:   4    -0.158605131366E+04    0.16318E+01   -0.69341E+00 17856   0.457E+00    0.326E+00
DAV:   5    -0.158551483980E+04    0.53647E+00   -0.35659E+00 16368   0.286E+00    0.103E+00
DAV:   6    -0.158550575812E+04    0.90817E-02   -0.61277E-01 14904   0.124E+00    0.690E-01
DAV:   7    -0.158550623593E+04   -0.47781E-03   -0.10671E-01 15264   0.507E-01    0.503E-01
DAV:   8    -0.158550999969E+04   -0.37638E-02   -0.37038E-02 15688   0.250E-01    0.245E-01
DAV:   9    -0.158551828480E+04   -0.82851E-02   -0.26158E-02 16136   0.190E-01    0.194E-01
DAV:  10    -0.158551755008E+04    0.73472E-03   -0.46593E-03 16920   0.118E-01    0.118E-01
DAV:  11    -0.158551718362E+04    0.36646E-03   -0.29379E-03 17216   0.728E-02    0.467E-02
DAV:  12    -0.158551755784E+04   -0.37422E-03   -0.15881E-03 17264   0.507E-02    0.503E-02
DAV:  13    -0.158551760867E+04   -0.50829E-04   -0.28197E-04 15936   0.245E-02    0.238E-02
DAV:  14    -0.158551759865E+04    0.10023E-04   -0.86898E-05 13064   0.136E-02    0.106E-02
DAV:  15    -0.158551759327E+04    0.53817E-05   -0.26574E-05  7096   0.745E-03
   3 F= -.15855176E+04 E0= -.15855070E+04  d E =-.297619E+02
       N       E                     dE             d eps       ncg     rms          rms(c)
DAV:   1    -0.158566180644E+04   -0.14421E+00   -0.16581E+01 11592   0.537E+00    0.711E-01
DAV:   2    -0.158568096959E+04   -0.19163E-01   -0.30907E-01 17464   0.805E-01    0.626E-01
DAV:   3    -0.158566210213E+04    0.18867E-01   -0.92367E-02 18480   0.520E-01    0.365E-01
DAV:   4    -0.158565876582E+04    0.33363E-02   -0.19234E-02 16744   0.208E-01    0.228E-01
DAV:   5    -0.158565750958E+04    0.12562E-02   -0.10273E-02 15632   0.162E-01    0.104E-01
DAV:   6    -0.158565722610E+04    0.28348E-03   -0.35442E-03 16344   0.105E-01    0.589E-02
DAV:   7    -0.158565713030E+04    0.95809E-04   -0.98997E-04 16216   0.502E-02    0.350E-02
DAV:   8    -0.158565710442E+04    0.25879E-04   -0.24237E-04 15536   0.228E-02    0.207E-02
DAV:   9    -0.158565710211E+04    0.23066E-05   -0.77942E-05 13640   0.149E-02
   4 F= -.15856571E+04 E0= -.15856475E+04  d E =-.139509E+00
       N       E                     dE             d eps       ncg     rms          rms(c)
DAV:   1    -0.158568911030E+04   -0.32006E-01   -0.36311E+00 11592   0.251E+00    0.387E-01
DAV:   2    -0.158569674913E+04   -0.76388E-02   -0.92768E-02 18224   0.508E-01    0.407E-01
DAV:   3    -0.158568579956E+04    0.10950E-01   -0.40795E-02 18568   0.345E-01    0.180E-01
DAV:   4    -0.158568485150E+04    0.94807E-03   -0.54512E-03 16480   0.110E-01    0.120E-01
DAV:   5    -0.158568445800E+04    0.39349E-03   -0.26462E-03 15976   0.841E-02    0.675E-02
DAV:   6    -0.158568428873E+04    0.16927E-03   -0.12276E-03 15944   0.609E-02    0.364E-02
DAV:   7    -0.158568423934E+04    0.49391E-04   -0.35682E-04 15608   0.308E-02    0.200E-02
DAV:   8    -0.158568424225E+04   -0.29110E-05   -0.80504E-05 13136   0.131E-02
   5 F= -.15856842E+04 E0= -.15856741E+04  d E =-.271401E-01
       N       E                     dE             d eps       ncg     rms          rms(c)
DAV:   1    -0.158569452022E+04   -0.10281E-01   -0.61874E-01 11688   0.112E+00    0.241E-01
DAV:   2    -0.158569298914E+04    0.15311E-02   -0.10737E-02 16664   0.155E-01    0.144E-01
DAV:   3    -0.158569251633E+04    0.47280E-03   -0.50850E-03 18808   0.121E-01    0.112E-01
DAV:   4    -0.158569197147E+04    0.54487E-03   -0.19730E-03 16440   0.699E-02    0.501E-02
DAV:   5    -0.158569196360E+04    0.78722E-05   -0.87631E-04 15560   0.469E-02    0.254E-02
DAV:   6    -0.158569194646E+04    0.17134E-04   -0.20775E-04 15432   0.258E-02    0.147E-02
DAV:   7    -0.158569194298E+04    0.34790E-05   -0.35080E-05  8048   0.991E-03
   6 F= -.15856919E+04 E0= -.15856823E+04  d E =-.770073E-02
       N       E                     dE             d eps       ncg     rms          rms(c)
DAV:   1    -0.158570141833E+04   -0.94719E-02   -0.60169E-01 11616   0.104E+00    0.186E-01
DAV:   2    -0.158570235412E+04   -0.93579E-03   -0.16504E-02 18312   0.221E-01    0.182E-01
DAV:   3    -0.158570016578E+04    0.21883E-02   -0.82043E-03 18656   0.155E-01    0.834E-02
DAV:   4    -0.158569990160E+04    0.26418E-03   -0.12220E-03 16224   0.516E-02    0.522E-02
DAV:   5    -0.158569978860E+04    0.11299E-03   -0.57842E-04 15928   0.401E-02    0.293E-02
DAV:   6    -0.158569973984E+04    0.48763E-04   -0.24650E-04 16064   0.277E-02    0.152E-02
DAV:   7    -0.158569973060E+04    0.92437E-05   -0.61328E-05 12528   0.132E-02
   7 F= -.15856997E+04 E0= -.15856899E+04  d E =-.778761E-02
       N       E                     dE             d eps       ncg     rms          rms(c)
DAV:   1    -0.158570347926E+04   -0.37394E-02   -0.41087E-01 11628   0.834E-01    0.972E-02
DAV:   2    -0.158570437284E+04   -0.89358E-03   -0.66231E-03 17536   0.139E-01    0.116E-01
DAV:   3    -0.158570351657E+04    0.85627E-03   -0.27281E-03 17856   0.910E-02    0.532E-02
DAV:   4    -0.158570348756E+04    0.29007E-04   -0.42791E-04 16664   0.302E-02    0.309E-02
DAV:   5    -0.158570347488E+04    0.12680E-04   -0.21111E-04 16064   0.251E-02    0.147E-02
DAV:   6    -0.158570346845E+04    0.64299E-05   -0.72630E-05 13232   0.149E-02
   8 F= -.15857035E+04 E0= -.15856937E+04  d E =-.373785E-02
       N       E                     dE             d eps       ncg     rms          rms(c)
DAV:   1    -0.158570534116E+04   -0.18663E-02   -0.13804E-01 11676   0.497E-01    0.863E-02
DAV:   2    -0.158570540144E+04   -0.60284E-04   -0.30038E-03 18104   0.927E-02    0.772E-02
DAV:   3    -0.158570503744E+04    0.36400E-03   -0.14639E-03 18728   0.657E-02    0.399E-02
DAV:   4    -0.158570496196E+04    0.75481E-04   -0.25933E-04 16232   0.236E-02    0.241E-02
DAV:   5    -0.158570492594E+04    0.36023E-04   -0.12368E-04 15016   0.190E-02    0.134E-02
DAV:   6    -0.158570491037E+04    0.15569E-04   -0.44225E-05 10096   0.130E-02    0.618E-03
DAV:   7    -0.158570490953E+04    0.83246E-06   -0.11809E-05  6672   0.660E-03
   9 F= -.15857049E+04 E0= -.15856950E+04  d E =-.144108E-02
       N       E                     dE             d eps       ncg     rms          rms(c)
DAV:   1    -0.158570620899E+04   -0.12986E-02   -0.75203E-02 11676   0.366E-01    0.557E-02
DAV:   2    -0.158570624660E+04   -0.37612E-04   -0.96583E-04 17048   0.481E-02    0.421E-02
DAV:   3    -0.158570618524E+04    0.61361E-04   -0.37108E-04 18584   0.337E-02    0.281E-02
DAV:   4    -0.158570617840E+04    0.68395E-05   -0.95387E-05 13856   0.148E-02    0.126E-02
DAV:   5    -0.158570618760E+04   -0.91983E-05   -0.34477E-05  8904   0.117E-02
  10 F= -.15857062E+04 E0= -.15856964E+04  d E =-.127807E-02
       N       E                     dE             d eps       ncg     rms          rms(c)
DAV:   1    -0.158570735524E+04   -0.11768E-02   -0.10993E-01 11640   0.430E-01    0.492E-02
DAV:   2    -0.158570748302E+04   -0.12777E-03   -0.14755E-03 17960   0.608E-02    0.505E-02
DAV:   3    -0.158570734364E+04    0.13937E-03   -0.52517E-04 18544   0.399E-02    0.279E-02
DAV:   4    -0.158570732053E+04    0.23114E-04   -0.81926E-05 13464   0.136E-02    0.167E-02
DAV:   5    -0.158570730815E+04    0.12382E-04   -0.42618E-05  9928   0.125E-02    0.789E-03
DAV:   6    -0.158570730335E+04    0.47959E-05   -0.13906E-05  7544   0.893E-03
  11 F= -.15857073E+04 E0= -.15856975E+04  d E =-.111575E-02
       N       E                     dE             d eps       ncg     rms          rms(c)
DAV:   1    -0.158570817017E+04   -0.86202E-03   -0.10263E-01 11604   0.417E-01    0.443E-02
DAV:   2    -0.158570825717E+04   -0.86995E-04   -0.10119E-03 17032   0.456E-02    0.378E-02
DAV:   3    -0.158570821307E+04    0.44103E-04   -0.24118E-04 17364   0.275E-02    0.263E-02
DAV:   4    -0.158570821035E+04    0.27175E-05   -0.70014E-05 12688   0.125E-02    0.961E-03
DAV:   5    -0.158570821367E+04   -0.33216E-05   -0.20142E-05  7978   0.997E-03
  12 F= -.15857082E+04 E0= -.15856985E+04  d E =-.910317E-03
       N       E                     dE             d eps       ncg     rms          rms(c)
DAV:   1    -0.158570855821E+04   -0.34787E-03   -0.10019E-02 11736   0.139E-01    0.307E-02
DAV:   2    -0.158570850692E+04    0.51298E-04   -0.20239E-04 16992   0.215E-02    0.182E-02
DAV:   3    -0.158570848996E+04    0.16955E-04   -0.81249E-05 13586   0.163E-02    0.132E-02
DAV:   4    -0.158570847253E+04    0.17429E-04   -0.23558E-05  8064   0.952E-03    0.707E-03
DAV:   5    -0.158570846114E+04    0.11388E-04   -0.11841E-05  6312   0.648E-03    0.283E-03
DAV:   6    -0.158570845937E+04    0.17742E-05   -0.37409E-06  6248   0.429E-03
  13 F= -.15857085E+04 E0= -.15856987E+04  d E =-.245701E-03
       N       E                     dE             d eps       ncg     rms          rms(c)
DAV:   1    -0.158570904092E+04   -0.57978E-03   -0.55274E-02 11604   0.304E-01    0.299E-02
DAV:   2    -0.158570908285E+04   -0.41930E-04   -0.49500E-04 16800   0.301E-02    0.250E-02
DAV:   3    -0.158570906822E+04    0.14626E-04   -0.75780E-05 13506   0.162E-02    0.188E-02
DAV:   4    -0.158570906766E+04    0.56755E-06   -0.42876E-05 10104   0.965E-03    0.562E-03
DAV:   5    -0.158570906806E+04   -0.39952E-06   -0.88691E-06  6828   0.676E-03
  14 F= -.15857091E+04 E0= -.15856993E+04  d E =-.608685E-03
       N       E                     dE             d eps       ncg     rms          rms(c)
DAV:   1    -0.158570966799E+04   -0.60033E-03   -0.75260E-02 11616   0.355E-01    0.357E-02
DAV:   2    -0.158570970167E+04   -0.33685E-04   -0.72455E-04 16920   0.368E-02    0.296E-02
DAV:   3    -0.158570967560E+04    0.26073E-04   -0.13996E-04 16152   0.209E-02    0.217E-02
DAV:   4    -0.158570965737E+04    0.18232E-04   -0.40752E-05  9560   0.991E-03    0.108E-02
DAV:   5    -0.158570964981E+04    0.75538E-05   -0.17353E-05  7320   0.851E-03
  15 F= -.15857096E+04 E0= -.15856999E+04  d E =-.581756E-03
       N       E                     dE             d eps       ncg     rms          rms(c)
DAV:   1    -0.158570975522E+04   -0.97859E-04   -0.30500E-03 11748   0.791E-02    0.185E-02
DAV:   2    -0.158570975927E+04   -0.40479E-05   -0.49418E-05 10664   0.112E-02    0.968E-03
DAV:   3    -0.158570976275E+04   -0.34762E-05   -0.17623E-05  7696   0.875E-03    0.746E-03
DAV:   4    -0.158570976620E+04   -0.34472E-05   -0.70120E-06  6440   0.619E-03    0.358E-03
DAV:   5    -0.158570977083E+04   -0.46330E-05   -0.39250E-06  6048   0.365E-03
  16 F= -.15857098E+04 E0= -.15857000E+04  d E =-.121017E-03
       N       E                     dE             d eps       ncg     rms          rms(c)
DAV:   1    -0.158571015805E+04   -0.39185E-03   -0.35612E-02 11628   0.244E-01    0.245E-02
DAV:   2    -0.158571016757E+04   -0.95217E-05   -0.32094E-04 16952   0.228E-02    0.187E-02
DAV:   3    -0.158571016002E+04    0.75523E-05   -0.30780E-05  8998   0.110E-02    0.147E-02
DAV:   4    -0.158571014995E+04    0.10070E-04   -0.19277E-05  6880   0.800E-03    0.622E-03
DAV:   5    -0.158571014660E+04    0.33461E-05   -0.86382E-06  6306   0.619E-03
  17 F= -.15857101E+04 E0= -.15857004E+04  d E =-.375772E-03
       N       E                     dE             d eps       ncg     rms          rms(c)
DAV:   1    -0.158571052765E+04   -0.37771E-03   -0.49077E-02 11616   0.287E-01    0.264E-02
DAV:   2    -0.158571055998E+04   -0.32333E-04   -0.41973E-04 16992   0.256E-02    0.204E-02
DAV:   3    -0.158571055659E+04    0.33992E-05   -0.27982E-05  8738   0.105E-02    0.159E-02
DAV:   4    -0.158571055503E+04    0.15536E-05   -0.25517E-05  7280   0.916E-03    0.368E-03
DAV:   5    -0.158571055566E+04   -0.62741E-06   -0.68319E-06  6344   0.603E-03
  18 F= -.15857106E+04 E0= -.15857009E+04  d E =-.409059E-03
       N       E                     dE             d eps       ncg     rms          rms(c)
DAV:   1    -0.158571070999E+04   -0.15496E-03   -0.71657E-03 11664   0.113E-01    0.176E-02
DAV:   2    -0.158571069133E+04    0.18665E-04   -0.90365E-05 14336   0.132E-02    0.105E-02
DAV:   3    -0.158571068483E+04    0.64965E-05   -0.20165E-05  7904   0.891E-03    0.777E-03
DAV:   4    -0.158571067771E+04    0.71180E-05   -0.77177E-06  6328   0.624E-03    0.435E-03
DAV:   5    -0.158571067191E+04    0.57994E-05   -0.46696E-06  6048   0.398E-03
  19 F= -.15857107E+04 E0= -.15857010E+04  d E =-.116254E-03
       N       E                     dE             d eps       ncg     rms          rms(c)
DAV:   1    -0.158571087657E+04   -0.19886E-03   -0.15606E-02 11628   0.162E-01    0.175E-02
DAV:   2    -0.158571088984E+04   -0.13268E-04   -0.13899E-04 16248   0.147E-02    0.125E-02
DAV:   3    -0.158571089063E+04   -0.78413E-06   -0.11735E-05  7382   0.702E-03    0.946E-03
DAV:   4    -0.158571089326E+04   -0.26322E-05   -0.84128E-06  6392   0.622E-03    0.333E-03
DAV:   5    -0.158571089522E+04   -0.19604E-05   -0.34261E-06  6060   0.397E-03
  20 F= -.15857109E+04 E0= -.15857012E+04  d E =-.223304E-03
       N       E                     dE             d eps       ncg     rms          rms(c)
DAV:   1    -0.158571112774E+04   -0.23449E-03   -0.24150E-02 11616   0.201E-01    0.190E-02
DAV:   2    -0.158571113588E+04   -0.81331E-05   -0.20717E-04 16672   0.179E-02    0.144E-02
DAV:   3    -0.158571113198E+04    0.38939E-05   -0.13210E-05  7618   0.751E-03    0.110E-02
DAV:   4    -0.158571112578E+04    0.61968E-05   -0.11636E-05  6512   0.671E-03    0.345E-03
DAV:   5    -0.158571112464E+04    0.11485E-05   -0.41809E-06  6120   0.454E-03
  21 F= -.15857111E+04 E0= -.15857014E+04  d E =-.229419E-03
       N       E                     dE             d eps       ncg     rms          rms(c)
DAV:   1    -0.158571131876E+04   -0.19297E-03   -0.23433E-02 11628   0.199E-01    0.202E-02
DAV:   2    -0.158571133681E+04   -0.18055E-04   -0.20605E-04 16592   0.178E-02    0.144E-02
DAV:   3    -0.158571133769E+04   -0.88004E-06   -0.15696E-05  7770   0.774E-03    0.105E-02
DAV:   4    -0.158571133984E+04   -0.21467E-05   -0.10355E-05  6872   0.720E-03    0.432E-03
DAV:   5    -0.158571134223E+04   -0.23960E-05   -0.47932E-06  6120   0.463E-03
  22 F= -.15857113E+04 E0= -.15857017E+04  d E =-.217597E-03
       N       E                     dE             d eps       ncg     rms          rms(c)
DAV:   1    -0.158571141766E+04   -0.77821E-04   -0.18472E-03 11664   0.591E-02    0.120E-02
DAV:   2    -0.158571140269E+04    0.14969E-04   -0.20301E-05  6312   0.783E-03    0.638E-03
DAV:   3    -0.158571139879E+04    0.38976E-05   -0.83898E-06  6176   0.670E-03    0.488E-03
DAV:   4    -0.158571139364E+04    0.51523E-05   -0.39840E-06  6048   0.442E-03    0.215E-03
DAV:   5    -0.158571139099E+04    0.26534E-05   -0.23098E-06  6048   0.262E-03
  23 F= -.15857114E+04 E0= -.15857017E+04  d E =-.487527E-04
       N       E                     dE             d eps       ncg     rms          rms(c)
DAV:   1    -0.158571153875E+04   -0.14511E-03   -0.14668E-02 11628   0.156E-01    0.150E-02
DAV:   2    -0.158571154910E+04   -0.10345E-04   -0.12895E-04 16176   0.138E-02    0.114E-02
DAV:   3    -0.158571154885E+04    0.24815E-06   -0.84225E-06  6920   0.562E-03    0.784E-03
DAV:   4    -0.158571154925E+04   -0.39602E-06   -0.67980E-06  6352   0.557E-03    0.210E-03
DAV:   5    -0.158571154943E+04   -0.18509E-06   -0.21469E-06  6048   0.339E-03
  24 F= -.15857115E+04 E0= -.15857019E+04  d E =-.158445E-03
       N       E                     dE             d eps       ncg     rms          rms(c)
DAV:   1    -0.158571170414E+04   -0.15489E-03   -0.17629E-02 11628   0.172E-01    0.165E-02
DAV:   2    -0.158571170692E+04   -0.27880E-05   -0.15447E-04 16360   0.154E-02    0.122E-02
DAV:   3    -0.158571170305E+04    0.38758E-05   -0.10688E-05  7210   0.650E-03    0.900E-03
DAV:   4    -0.158571169804E+04    0.50116E-05   -0.75427E-06  6352   0.593E-03    0.385E-03
DAV:   5    -0.158571169594E+04    0.20943E-05   -0.36234E-06  6056   0.410E-03
  25 F= -.15857117E+04 E0= -.15857020E+04  d E =-.146512E-03
       N       E                     dE             d eps       ncg     rms          rms(c)
DAV:   1    -0.158571174086E+04   -0.42823E-04   -0.20220E-03 11640   0.599E-02    0.899E-03
DAV:   2    -0.158571174610E+04   -0.52430E-05   -0.15290E-05  6184   0.639E-03    0.524E-03
DAV:   3    -0.158571174846E+04   -0.23566E-05   -0.60203E-06  6024   0.484E-03    0.397E-03
DAV:   4    -0.158571175123E+04   -0.27666E-05   -0.32097E-06  6048   0.361E-03    0.166E-03
DAV:   5    -0.158571175307E+04   -0.18454E-05   -0.18405E-06  6048   0.230E-03
  26 F= -.15857118E+04 E0= -.15857021E+04  d E =-.571292E-04
       N       E                     dE             d eps       ncg     rms          rms(c)
DAV:   1    -0.158571185468E+04   -0.10345E-03   -0.83370E-03 11628   0.118E-01    0.123E-02
DAV:   2    -0.158571185335E+04    0.13302E-05   -0.75553E-05 13824   0.109E-02    0.888E-03
DAV:   3    -0.158571185061E+04    0.27307E-05   -0.85926E-06  6602   0.537E-03    0.621E-03
DAV:   4    -0.158571184744E+04    0.31735E-05   -0.41763E-06  6120   0.449E-03    0.295E-03
DAV:   5    -0.158571184577E+04    0.16663E-05   -0.21839E-06  6042   0.314E-03
  27 F= -.15857118E+04 E0= -.15857022E+04  d E =-.927035E-04
       N       E                     dE             d eps       ncg     rms          rms(c)
DAV:   1    -0.158571192855E+04   -0.81105E-04   -0.77126E-03 11628   0.114E-01    0.107E-02
DAV:   2    -0.158571193500E+04   -0.64582E-05   -0.61477E-05 12008   0.100E-02    0.810E-03
DAV:   3    -0.158571193578E+04   -0.77153E-06   -0.84952E-06  6384   0.529E-03    0.589E-03
DAV:   4    -0.158571193731E+04   -0.15305E-05   -0.46543E-06  6048   0.414E-03    0.143E-03
DAV:   5    -0.158571193769E+04   -0.38718E-06   -0.17389E-06  6048   0.269E-03
  28 F= -.15857119E+04 E0= -.15857023E+04  d E =-.919188E-04
       N       E                     dE             d eps       ncg     rms          rms(c)
DAV:   1    -0.158571201693E+04   -0.79626E-04   -0.68766E-03 11628   0.108E-01    0.114E-02
DAV:   2    -0.158571201331E+04    0.36269E-05   -0.59648E-05 11824   0.996E-03    0.792E-03
DAV:   3    -0.158571201065E+04    0.26577E-05   -0.94697E-06  6424   0.554E-03    0.554E-03
DAV:   4    -0.158571200744E+04    0.32096E-05   -0.37564E-06  6048   0.418E-03    0.279E-03
DAV:   5    -0.158571200543E+04    0.20040E-05   -0.21707E-06  6048   0.295E-03
  29 F= -.15857120E+04 E0= -.15857024E+04  d E =-.677401E-04
       N       E                     dE             d eps       ncg     rms          rms(c)
DAV:   1    -0.158571204151E+04   -0.34068E-04   -0.18926E-03 11628   0.571E-02    0.738E-03
DAV:   2    -0.158571204582E+04   -0.43177E-05   -0.13166E-05  6044   0.571E-03    0.462E-03
DAV:   3    -0.158571204757E+04   -0.17444E-05   -0.51579E-06  6000   0.408E-03    0.348E-03
DAV:   4    -0.158571204981E+04   -0.22401E-05   -0.28001E-06  6012   0.312E-03    0.146E-03
DAV:   5    -0.158571205113E+04   -0.13245E-05   -0.16036E-06  6012   0.212E-03
  30 F= -.15857121E+04 E0= -.15857024E+04  d E =-.456989E-04
       N       E                     dE             d eps       ncg     rms          rms(c)
DAV:   1    -0.158571211594E+04   -0.66133E-04   -0.57117E-03 11628   0.976E-02    0.971E-03
DAV:   2    -0.158571211531E+04    0.63177E-06   -0.44527E-05 10568   0.890E-03    0.710E-03
DAV:   3    -0.158571211379E+04    0.15212E-05   -0.87225E-06  6298   0.503E-03    0.451E-03
DAV:   4    -0.158571211195E+04    0.18365E-05   -0.40511E-06  6048   0.403E-03    0.183E-03
DAV:   5    -0.158571211144E+04    0.50759E-06   -0.21112E-06  6030   0.280E-03
  31 F= -.15857121E+04 E0= -.15857025E+04  d E =-.603116E-04
       N       E                     dE             d eps       ncg     rms          rms(c)
DAV:   1    -0.158571216099E+04   -0.49041E-04   -0.48602E-03 11628   0.903E-02    0.898E-03
DAV:   2    -0.158571216547E+04   -0.44768E-05   -0.30171E-05  8408   0.824E-03    0.635E-03
DAV:   3    -0.158571216723E+04   -0.17573E-05   -0.10087E-05  6184   0.507E-03    0.441E-03
DAV:   4    -0.158571216923E+04   -0.20074E-05   -0.56037E-06  6030   0.420E-03    0.145E-03
DAV:   5    -0.158571216999E+04   -0.75386E-06   -0.29987E-06  6030   0.293E-03
  32 F= -.15857122E+04 E0= -.15857026E+04  d E =-.585434E-04
       N       E                     dE             d eps       ncg     rms          rms(c)
DAV:   1    -0.158571220522E+04   -0.35984E-04   -0.16852E-03 11628   0.537E-02    0.719E-03
DAV:   2    -0.158571219991E+04    0.53033E-05   -0.13737E-05  6012   0.586E-03    0.434E-03
DAV:   3    -0.158571219818E+04    0.17356E-05   -0.55926E-06  6006   0.426E-03    0.309E-03
DAV:   4    -0.158571219623E+04    0.19523E-05   -0.28396E-06  6012   0.318E-03    0.166E-03
DAV:   5    -0.158571219498E+04    0.12451E-05   -0.17637E-06  6012   0.228E-03
  33 F= -.15857122E+04 E0= -.15857026E+04  d E =-.249936E-04
       N       E                     dE             d eps       ncg     rms          rms(c)
DAV:   1    -0.158571223032E+04   -0.34093E-04   -0.28343E-03 11628   0.688E-02    0.695E-03
DAV:   2    -0.158571223306E+04   -0.27435E-05   -0.17298E-05  7600   0.646E-03    0.499E-03
DAV:   3    -0.158571223416E+04   -0.10962E-05   -0.65847E-06  6136   0.412E-03    0.356E-03
DAV:   4    -0.158571223567E+04   -0.15157E-05   -0.39875E-06  5994   0.343E-03    0.939E-04
DAV:   5    -0.158571223606E+04   -0.38090E-06   -0.21031E-06  5994   0.246E-03
  34 F= -.15857122E+04 E0= -.15857026E+04  d E =-.410741E-04
       N       E                     dE             d eps       ncg     rms          rms(c)
DAV:   1    -0.158571228479E+04   -0.49121E-04   -0.54310E-03 11628   0.952E-02    0.927E-03
DAV:   2    -0.158571228447E+04    0.32214E-06   -0.44312E-05 10456   0.885E-03    0.681E-03
DAV:   3    -0.158571228305E+04    0.14259E-05   -0.85544E-06  6168   0.493E-03    0.423E-03
DAV:   4    -0.158571228140E+04    0.16499E-05   -0.39385E-06  6030   0.396E-03    0.172E-03
DAV:   5    -0.158571228095E+04    0.44859E-06   -0.20584E-06  6012   0.281E-03
  35 F= -.15857123E+04 E0= -.15857027E+04  d E =-.448931E-04
       N       E                     dE             d eps       ncg     rms          rms(c)
DAV:   1    -0.158571228825E+04   -0.68552E-05   -0.25443E-04 11548   0.218E-02    0.434E-03
DAV:   2    -0.158571229133E+04   -0.30758E-05   -0.34452E-06  5958   0.298E-03    0.228E-03
DAV:   3    -0.158571229264E+04   -0.13125E-05   -0.15466E-06  5952   0.249E-03    0.173E-03
DAV:   4    -0.158571229387E+04   -0.12322E-05   -0.73792E-07  5958   0.175E-03    0.807E-04
DAV:   5    -0.158571229487E+04   -0.10002E-05   -0.45182E-07  5958   0.114E-03
  36 F= -.15857123E+04 E0= -.15857027E+04  d E =-.139245E-04
       N       E                     dE             d eps       ncg     rms          rms(c)
DAV:   1    -0.158571232932E+04   -0.35443E-04   -0.30075E-03 11628   0.708E-02    0.683E-03
DAV:   2    -0.158571232858E+04    0.73880E-06   -0.16524E-05  6622   0.630E-03    0.489E-03
DAV:   3    -0.158571232781E+04    0.76344E-06   -0.60776E-06  6034   0.376E-03    0.272E-03
DAV:   4    -0.158571232712E+04    0.69293E-06   -0.32749E-06  5958   0.328E-03    0.100E-03
DAV:   5    -0.158571232714E+04   -0.16681E-07   -0.18096E-06  5958   0.234E-03
  37 F= -.15857123E+04 E0= -.15857027E+04  d E =-.322647E-04
       N       E                     dE             d eps       ncg     rms          rms(c)
DAV:   1    -0.158571237787E+04   -0.50751E-04   -0.11848E-02 11616   0.141E-01    0.133E-02
DAV:   2    -0.158571238768E+04   -0.98088E-05   -0.10780E-04 15736   0.126E-02    0.101E-02
DAV:   3    -0.158571238797E+04   -0.28437E-06   -0.73215E-06  6722   0.512E-03    0.681E-03
DAV:   4    -0.158571238896E+04   -0.99003E-06   -0.51144E-06  6168   0.491E-03    0.207E-03
DAV:   5    -0.158571238933E+04   -0.37438E-06   -0.18164E-06  6012   0.304E-03
  38 F= -.15857124E+04 E0= -.15857028E+04  d E =-.621921E-04
       N       E                     dE             d eps       ncg     rms          rms(c)
DAV:   1    -0.158571237099E+04    0.17964E-04   -0.24806E-03 11628   0.650E-02    0.781E-03
DAV:   2    -0.158571236531E+04    0.56857E-05   -0.13195E-05  5972   0.594E-03    0.503E-03
DAV:   3    -0.158571236318E+04    0.21263E-05   -0.45828E-06  5940   0.386E-03    0.363E-03
DAV:   4    -0.158571236032E+04    0.28609E-05   -0.24940E-06  5940   0.310E-03    0.143E-03
DAV:   5    -0.158571235934E+04    0.97498E-06   -0.13225E-06  5940   0.200E-03
  39 F= -.15857124E+04 E0= -.15857028E+04  d E =0.299858E-04
       N       E                     dE             d eps       ncg     rms          rms(c)
DAV:   1    -0.158571239523E+04   -0.34907E-04   -0.46712E-03 11628   0.884E-02    0.792E-03
DAV:   2    -0.158571239574E+04   -0.51602E-06   -0.21672E-05  6234   0.738E-03    0.579E-03
DAV:   3    -0.158571239565E+04    0.97298E-07   -0.67938E-06  6012   0.409E-03    0.370E-03
DAV:   4    -0.158571239528E+04    0.36933E-06   -0.40350E-06  5940   0.363E-03    0.850E-04
DAV:   5    -0.158571239542E+04   -0.14683E-06   -0.18631E-06  5940   0.233E-03
  40 F= -.15857124E+04 E0= -.15857028E+04  d E =-.360786E-04
       N       E                     dE             d eps       ncg     rms          rms(c)
DAV:   1    -0.158571247921E+04   -0.83932E-04   -0.61807E-02 11592   0.321E-01    0.292E-02
DAV:   2    -0.158571251187E+04   -0.32657E-04   -0.52377E-04 17064   0.279E-02    0.225E-02
DAV:   3    -0.158571250530E+04    0.65609E-05   -0.36355E-05  9698   0.104E-02    0.146E-02
DAV:   4    -0.158571249874E+04    0.65659E-05   -0.25393E-05  8224   0.105E-02    0.436E-03
DAV:   5    -0.158571249799E+04    0.74726E-06   -0.72259E-06  6432   0.629E-03
  41 F= -.15857125E+04 E0= -.15857029E+04  d E =-.102568E-03
       N       E                     dE             d eps       ncg     rms          rms(c)
DAV:   1    -0.158571253386E+04   -0.35120E-04   -0.51529E-02 11592   0.293E-01    0.262E-02
DAV:   2    -0.158571256249E+04   -0.28635E-04   -0.43805E-04 17016   0.255E-02    0.202E-02
DAV:   3    -0.158571255722E+04    0.52770E-05   -0.25032E-05  8552   0.958E-03    0.139E-02
DAV:   4    -0.158571255208E+04    0.51318E-05   -0.21191E-05  7760   0.966E-03    0.424E-03
DAV:   5    -0.158571255151E+04    0.56999E-06   -0.68080E-06  6368   0.616E-03
  42 F= -.15857126E+04 E0= -.15857030E+04  d E =-.535227E-04
       N       E                     dE             d eps       ncg     rms          rms(c)
DAV:   1    -0.158571255743E+04   -0.53512E-05   -0.25528E-02 11604   0.206E-01    0.183E-02
DAV:   2    -0.158571257073E+04   -0.13294E-04   -0.22456E-04 16848   0.182E-02    0.141E-02
DAV:   3    -0.158571256750E+04    0.32280E-05   -0.11942E-05  7298   0.670E-03    0.994E-03
DAV:   4    -0.158571256411E+04    0.33943E-05   -0.10153E-05  6576   0.669E-03    0.351E-03
DAV:   5    -0.158571256338E+04    0.72833E-06   -0.39079E-06  6160   0.465E-03
  43 F= -.15857126E+04 E0= -.15857030E+04  d E =-.118645E-04
