       N       E                     dE             d eps       ncg     rms          rms(c)
DAV:   1     0.218158877495E+04    0.21816E+04   -0.28916E+05 11592   0.143E+03
DAV:   2    -0.119751228215E+04   -0.33791E+04   -0.32438E+04 13452   0.295E+02
DAV:   3    -0.162406156514E+04   -0.42655E+03   -0.39319E+03 17944   0.818E+01
DAV:   4    -0.164865084131E+04   -0.24589E+02   -0.22863E+02 16312   0.171E+01
DAV:   5    -0.164971685214E+04   -0.10660E+01   -0.10461E+01 17784   0.418E+00    0.412E+01
DAV:   6    -0.161516801939E+04    0.34549E+02   -0.17052E+02 19088   0.198E+01    0.254E+01
DAV:   7    -0.159558701474E+04    0.19581E+02   -0.12257E+02 19232   0.184E+01    0.188E+01
DAV:   8    -0.158478757060E+04    0.10799E+02   -0.79798E+01 16616   0.116E+01    0.102E+01
DAV:   9    -0.157952984994E+04    0.52577E+01   -0.26333E+01 16856   0.833E+00    0.368E+00
DAV:  10    -0.157917451534E+04    0.35533E+00   -0.56010E+00 16680   0.372E+00    0.190E+00
DAV:  11    -0.157916162514E+04    0.12890E-01   -0.12477E+00 15824   0.158E+00    0.135E+00
DAV:  12    -0.157913024034E+04    0.31385E-01   -0.26831E-01 14152   0.767E-01    0.696E-01
DAV:  13    -0.157912184442E+04    0.83959E-02   -0.85819E-02 16336   0.524E-01    0.434E-01
DAV:  14    -0.157911357179E+04    0.82726E-02   -0.35107E-02 16768   0.326E-01    0.192E-01
DAV:  15    -0.157911266844E+04    0.90334E-03   -0.10582E-02 15272   0.140E-01    0.767E-02
DAV:  16    -0.157911271289E+04   -0.44444E-04   -0.19382E-03 15792   0.701E-02    0.550E-02
DAV:  17    -0.157911266557E+04    0.47315E-04   -0.63174E-04 16496   0.426E-02    0.355E-02
DAV:  18    -0.157911263629E+04    0.29283E-04   -0.27298E-04 15920   0.261E-02    0.152E-02
DAV:  19    -0.157911262939E+04    0.68967E-05   -0.72310E-05 12672   0.130E-02
   1 F= -.15791126E+04 E0= -.15791217E+04  d E =-.157911E+04
       N       E                     dE             d eps       ncg     rms          rms(c)
DAV:   1    -0.158427368297E+04   -0.51610E+01   -0.15873E+03 11592   0.603E+01    0.218E+01
DAV:   2    -0.156999121891E+04    0.14282E+02   -0.10888E+02 18344   0.149E+01    0.147E+01
DAV:   3    -0.156171017304E+04    0.82810E+01   -0.66582E+01 19240   0.124E+01    0.998E+00
DAV:   4    -0.155739920870E+04    0.43110E+01   -0.26871E+01 20600   0.698E+00    0.647E+00
DAV:   5    -0.155575794470E+04    0.16413E+01   -0.13821E+01 17264   0.464E+00    0.247E+00
DAV:   6    -0.155557419612E+04    0.18375E+00   -0.26469E+00 17040   0.235E+00    0.156E+00
DAV:   7    -0.155552386746E+04    0.50329E-01   -0.51148E-01 15920   0.112E+00    0.106E+00
DAV:   8    -0.155550886900E+04    0.14998E-01   -0.17063E-01 17728   0.504E-01    0.580E-01
DAV:   9    -0.155551397053E+04   -0.51015E-02   -0.11038E-01 17920   0.344E-01    0.337E-01
DAV:  10    -0.155551465230E+04   -0.68177E-03   -0.23154E-02 16816   0.234E-01    0.268E-01
DAV:  11    -0.155551218816E+04    0.24641E-02   -0.10478E-02 19288   0.151E-01    0.133E-01
DAV:  12    -0.155551191523E+04    0.27293E-03   -0.49233E-03 18624   0.813E-02    0.587E-02
DAV:  13    -0.155551214182E+04   -0.22659E-03   -0.96361E-04 17096   0.419E-02    0.407E-02
DAV:  14    -0.155551218344E+04   -0.41619E-04   -0.42711E-04 16560   0.314E-02    0.248E-02
DAV:  15    -0.155551218108E+04    0.23578E-05   -0.15236E-04 14992   0.172E-02    0.144E-02
DAV:  16    -0.155551217960E+04    0.14733E-05   -0.45414E-05  9160   0.103E-02
   2 F= -.15555122E+04 E0= -.15555141E+04  d E =0.236004E+02
       N       E                     dE             d eps       ncg     rms          rms(c)
DAV:   1    -0.159871331850E+04   -0.43201E+02   -0.74137E+02 11592   0.455E+01    0.152E+01
DAV:   2    -0.158955086358E+04    0.91625E+01   -0.29310E+01 17104   0.899E+00    0.782E+00
DAV:   3    -0.158778598425E+04    0.17649E+01   -0.18698E+01 18536   0.701E+00    0.639E+00
DAV:   4    -0.158565199656E+04    0.21340E+01   -0.79475E+00 17408   0.443E+00    0.310E+00
DAV:   5    -0.158525740520E+04    0.39459E+00   -0.36202E+00 15952   0.282E+00    0.123E+00
DAV:   6    -0.158521663984E+04    0.40765E-01   -0.71475E-01 15616   0.141E+00    0.759E-01
DAV:   7    -0.158521219634E+04    0.44435E-02   -0.13860E-01 14872   0.582E-01    0.529E-01
DAV:   8    -0.158521567625E+04   -0.34799E-02   -0.40848E-02 15440   0.261E-01    0.271E-01
DAV:   9    -0.158522353409E+04   -0.78578E-02   -0.25012E-02 16448   0.203E-01    0.192E-01
DAV:  10    -0.158522358322E+04   -0.49137E-04   -0.64995E-03 15856   0.149E-01    0.132E-01
DAV:  11    -0.158522315065E+04    0.43257E-03   -0.36475E-03 16808   0.815E-02    0.492E-02
DAV:  12    -0.158522337352E+04   -0.22288E-03   -0.11328E-03 16912   0.432E-02    0.387E-02
DAV:  13    -0.158522350445E+04   -0.13093E-03   -0.25105E-04 15304   0.247E-02    0.253E-02
DAV:  14    -0.158522350845E+04   -0.40020E-05   -0.10636E-04 13768   0.159E-02    0.997E-03
DAV:  15    -0.158522350605E+04    0.24011E-05   -0.31764E-05  7296   0.804E-03
   3 F= -.15852235E+04 E0= -.15852116E+04  d E =-.297113E+02
       N       E                     dE             d eps       ncg     rms          rms(c)
DAV:   1    -0.158542047697E+04   -0.19697E+00   -0.22560E+01 11592   0.623E+00    0.795E-01
DAV:   2    -0.158546015777E+04   -0.39681E-01   -0.41672E-01 17088   0.103E+00    0.832E-01
DAV:   3    -0.158541713163E+04    0.43026E-01   -0.15862E-01 17448   0.672E-01    0.404E-01
DAV:   4    -0.158541362765E+04    0.35040E-02   -0.26812E-02 16424   0.233E-01    0.244E-01
DAV:   5    -0.158541239775E+04    0.12299E-02   -0.12486E-02 16328   0.181E-01    0.135E-01
DAV:   6    -0.158541174787E+04    0.64988E-03   -0.52293E-03 16136   0.123E-01    0.643E-02
DAV:   7    -0.158541164681E+04    0.10106E-03   -0.13534E-03 15776   0.564E-02    0.382E-02
DAV:   8    -0.158541161976E+04    0.27051E-04   -0.31914E-04 15904   0.270E-02    0.239E-02
DAV:   9    -0.158541161228E+04    0.74807E-05   -0.99518E-05 14440   0.170E-02
   4 F= -.15854116E+04 E0= -.15854002E+04  d E =-.188106E+00
       N       E                     dE             d eps       ncg     rms          rms(c)
DAV:   1    -0.158546518956E+04   -0.53570E-01   -0.60331E+00 11592   0.322E+00    0.488E-01
DAV:   2    -0.158548812765E+04   -0.22938E-01   -0.17262E-01 17568   0.754E-01    0.625E-01
DAV:   3    -0.158545797374E+04    0.30154E-01   -0.89908E-02 17472   0.512E-01    0.218E-01
DAV:   4    -0.158545689527E+04    0.10785E-02   -0.97457E-03 16488   0.139E-01    0.147E-01
DAV:   5    -0.158545633185E+04    0.56343E-03   -0.40941E-03 16608   0.106E-01    0.896E-02
DAV:   6    -0.158545600662E+04    0.32522E-03   -0.21743E-03 15864   0.764E-02    0.445E-02
DAV:   7    -0.158545594348E+04    0.63141E-04   -0.55726E-04 15008   0.366E-02    0.259E-02
DAV:   8    -0.158545594284E+04    0.64339E-06   -0.12879E-04 14552   0.166E-02    0.162E-02
DAV:   9    -0.158545594473E+04   -0.18921E-05   -0.36438E-05  9368   0.110E-02
   5 F= -.15854559E+04 E0= -.15854437E+04  d E =-.443325E-01
       N       E                     dE             d eps       ncg     rms          rms(c)
DAV:   1    -0.158547253778E+04   -0.16595E-01   -0.99738E-01 11652   0.141E+00    0.300E-01
DAV:   2    -0.158546993359E+04    0.26042E-02   -0.15623E-02 15608   0.190E-01    0.177E-01
DAV:   3    -0.158546920122E+04    0.73237E-03   -0.77107E-03 17840   0.143E-01    0.137E-01
DAV:   4    -0.158546830673E+04    0.89448E-03   -0.29664E-03 15944   0.863E-02    0.595E-02
DAV:   5    -0.158546827471E+04    0.32027E-04   -0.12293E-03 15288   0.562E-02    0.289E-02
DAV:   6    -0.158546825700E+04    0.17706E-04   -0.28463E-04 15488   0.294E-02    0.176E-02
DAV:   7    -0.158546825260E+04    0.44058E-05   -0.58571E-05 11304   0.127E-02
   6 F= -.15854683E+04 E0= -.15854566E+04  d E =-.123079E-01
       N       E                     dE             d eps       ncg     rms          rms(c)
DAV:   1    -0.158548459086E+04   -0.16334E-01   -0.10598E+00 11616   0.137E+00    0.247E-01
DAV:   2    -0.158548861929E+04   -0.40284E-02   -0.35194E-02 17952   0.345E-01    0.293E-01
DAV:   3    -0.158548205893E+04    0.65604E-02   -0.19980E-02 17824   0.239E-01    0.106E-01
DAV:   4    -0.158548168996E+04    0.36897E-03   -0.22660E-03 16216   0.679E-02    0.662E-02
DAV:   5    -0.158548153165E+04    0.15831E-03   -0.97628E-04 16696   0.527E-02    0.403E-02
DAV:   6    -0.158548143832E+04    0.93335E-04   -0.46289E-04 16072   0.360E-02    0.191E-02
DAV:   7    -0.158548142764E+04    0.10684E-04   -0.11200E-04 14032   0.164E-02    0.120E-02
DAV:   8    -0.158548142985E+04   -0.22121E-05   -0.22141E-05  7344   0.814E-03
   7 F= -.15854814E+04 E0= -.15854694E+04  d E =-.131773E-01
       N       E                     dE             d eps       ncg     rms          rms(c)
DAV:   1    -0.158548766207E+04   -0.62344E-02   -0.69855E-01 11628   0.109E+00    0.131E-01
DAV:   2    -0.158548993484E+04   -0.22728E-02   -0.13771E-02 16848   0.214E-01    0.183E-01
DAV:   3    -0.158548745174E+04    0.24831E-02   -0.66820E-03 16968   0.143E-01    0.672E-02
DAV:   4    -0.158548741131E+04    0.40432E-04   -0.89351E-04 16336   0.427E-02    0.391E-02
DAV:   5    -0.158548737682E+04    0.34486E-04   -0.35384E-04 16000   0.325E-02    0.180E-02
DAV:   6    -0.158548736980E+04    0.70274E-05   -0.12598E-04 14792   0.177E-02    0.884E-03
DAV:   7    -0.158548736518E+04    0.46195E-05   -0.19811E-05  7392   0.820E-03
   8 F= -.15854874E+04 E0= -.15854754E+04  d E =-.593533E-02
       N       E                     dE             d eps       ncg     rms          rms(c)
DAV:   1    -0.158549017966E+04   -0.28099E-02   -0.21475E-01 11676   0.623E-01    0.119E-01
DAV:   2    -0.158549079580E+04   -0.61613E-03   -0.69719E-03 18192   0.152E-01    0.132E-01
DAV:   3    -0.158548950773E+04    0.12881E-02   -0.40963E-03 18232   0.107E-01    0.511E-02
DAV:   4    -0.158548939236E+04    0.11537E-03   -0.50230E-04 15944   0.320E-02    0.301E-02
DAV:   5    -0.158548934444E+04    0.47917E-04   -0.21852E-04 16512   0.252E-02    0.184E-02
DAV:   6    -0.158548931692E+04    0.27523E-04   -0.93232E-05 14400   0.168E-02    0.826E-03
DAV:   7    -0.158548931494E+04    0.19803E-05   -0.19343E-05  6936   0.761E-03
   9 F= -.15854893E+04 E0= -.15854772E+04  d E =-.194976E-02
       N       E                     dE             d eps       ncg     rms          rms(c)
DAV:   1    -0.158549114055E+04   -0.18236E-02   -0.10096E-01 11688   0.429E-01    0.743E-02
DAV:   2    -0.158549116051E+04   -0.19959E-04   -0.14784E-03 15912   0.624E-02    0.563E-02
DAV:   3    -0.158549102828E+04    0.13223E-03   -0.68248E-04 17272   0.441E-02    0.352E-02
DAV:   4    -0.158549100826E+04    0.20019E-04   -0.17625E-04 15144   0.201E-02    0.162E-02
DAV:   5    -0.158549101959E+04   -0.11334E-04   -0.69760E-05 13376   0.145E-02    0.888E-03
DAV:   6    -0.158549101967E+04   -0.72577E-07   -0.19009E-05  7752   0.913E-03
  10 F= -.15854910E+04 E0= -.15854790E+04  d E =-.170473E-02
       N       E                     dE             d eps       ncg     rms          rms(c)
DAV:   1    -0.158549232226E+04   -0.13027E-02   -0.11954E-01 11628   0.449E-01    0.589E-02
DAV:   2    -0.158549267908E+04   -0.35682E-03   -0.25551E-03 17560   0.904E-02    0.778E-02
DAV:   3    -0.158549223096E+04    0.44812E-03   -0.13014E-03 17508   0.612E-02    0.291E-02
DAV:   4    -0.158549220703E+04    0.23924E-04   -0.14273E-04 15272   0.171E-02    0.185E-02
DAV:   5    -0.158549219202E+04    0.15008E-04   -0.55802E-05 11448   0.140E-02    0.101E-02
DAV:   6    -0.158549218385E+04    0.81768E-05   -0.22211E-05  7864   0.965E-03
  11 F= -.15854922E+04 E0= -.15854801E+04  d E =-.116418E-02
       N       E                     dE             d eps       ncg     rms          rms(c)
DAV:   1    -0.158549290921E+04   -0.71719E-03   -0.83475E-02 11694   0.377E-01    0.445E-02
DAV:   2    -0.158549304002E+04   -0.13081E-03   -0.10856E-03 16776   0.534E-02    0.462E-02
DAV:   3    -0.158549292315E+04    0.11687E-03   -0.42870E-04 17458   0.350E-02    0.243E-02
DAV:   4    -0.158549292382E+04   -0.66432E-06   -0.75015E-05 13008   0.132E-02    0.111E-02
DAV:   5    -0.158549292768E+04   -0.38670E-05   -0.23439E-05  8168   0.103E-02
  12 F= -.15854929E+04 E0= -.15854809E+04  d E =-.743837E-03
       N       E                     dE             d eps       ncg     rms          rms(c)
DAV:   1    -0.158549329458E+04   -0.37076E-03   -0.13330E-02 11736   0.160E-01    0.342E-02
DAV:   2    -0.158549326534E+04    0.29243E-04   -0.35253E-04 18112   0.316E-02    0.276E-02
DAV:   3    -0.158549321606E+04    0.49271E-04   -0.18793E-04 17112   0.233E-02    0.150E-02
DAV:   4    -0.158549319516E+04    0.20902E-04   -0.32814E-05  8608   0.918E-03    0.777E-03
DAV:   5    -0.158549318446E+04    0.10702E-04   -0.13954E-05  6592   0.710E-03    0.399E-03
DAV:   6    -0.158549318131E+04    0.31548E-05   -0.50986E-06  6304   0.508E-03
  13 F= -.15854932E+04 E0= -.15854811E+04  d E =-.253621E-03
       N       E                     dE             d eps       ncg     rms          rms(c)
DAV:   1    -0.158549359068E+04   -0.40622E-03   -0.38676E-02 11640   0.255E-01    0.272E-02
DAV:   2    -0.158549364391E+04   -0.53231E-04   -0.44180E-04 17368   0.320E-02    0.277E-02
DAV:   3    -0.158549360652E+04    0.37387E-04   -0.13754E-04 16076   0.203E-02    0.161E-02
DAV:   4    -0.158549360839E+04   -0.18621E-05   -0.28530E-05  7944   0.861E-03    0.602E-03
DAV:   5    -0.158549361039E+04   -0.20061E-05   -0.92439E-06  6848   0.697E-03
  14 F= -.15854936E+04 E0= -.15854815E+04  d E =-.429086E-03
       N       E                     dE             d eps       ncg     rms          rms(c)
DAV:   1    -0.158549396084E+04   -0.35245E-03   -0.37472E-02 11676   0.251E-01    0.278E-02
DAV:   2    -0.158549399757E+04   -0.36735E-04   -0.48486E-04 17832   0.342E-02    0.288E-02
DAV:   3    -0.158549394974E+04    0.47829E-04   -0.17024E-04 16776   0.225E-02    0.157E-02
DAV:   4    -0.158549393855E+04    0.11192E-04   -0.24334E-05  7648   0.798E-03    0.849E-03
DAV:   5    -0.158549393302E+04    0.55294E-05   -0.11878E-05  6816   0.728E-03
  15 F= -.15854939E+04 E0= -.15854818E+04  d E =-.322631E-03
       N       E                     dE             d eps       ncg     rms          rms(c)
DAV:   1    -0.158549405565E+04   -0.11709E-03   -0.64438E-03 11736   0.108E-01    0.170E-02
DAV:   2    -0.158549406323E+04   -0.75832E-05   -0.66982E-05 13120   0.111E-02    0.959E-03
DAV:   3    -0.158549406766E+04   -0.44299E-05   -0.14270E-05  6850   0.647E-03    0.640E-03
DAV:   4    -0.158549407165E+04   -0.39866E-05   -0.54509E-06  6400   0.522E-03    0.351E-03
DAV:   5    -0.158549407452E+04   -0.28749E-05   -0.30066E-06  6120   0.374E-03
  16 F= -.15854941E+04 E0= -.15854820E+04  d E =-.141498E-03
       N       E                     dE             d eps       ncg     rms          rms(c)
DAV:   1    -0.158549428663E+04   -0.21498E-03   -0.16862E-02 11712   0.169E-01    0.189E-02
DAV:   2    -0.158549429297E+04   -0.63471E-05   -0.19387E-04 17416   0.202E-02    0.171E-02
DAV:   3    -0.158549427806E+04    0.14916E-04   -0.45682E-05 10298   0.129E-02    0.108E-02
DAV:   4    -0.158549427130E+04    0.67559E-05   -0.15547E-05  6480   0.655E-03    0.546E-03
DAV:   5    -0.158549426779E+04    0.35069E-05   -0.67302E-06  6208   0.555E-03
  17 F= -.15854943E+04 E0= -.15854822E+04  d E =-.193273E-03
       N       E                     dE             d eps       ncg     rms          rms(c)
DAV:   1    -0.158549445106E+04   -0.17976E-03   -0.19673E-02 11652   0.182E-01    0.173E-02
DAV:   2    -0.158549446807E+04   -0.17008E-04   -0.17525E-04 16744   0.177E-02    0.144E-02
DAV:   3    -0.158549446377E+04    0.42999E-05   -0.19153E-05  7976   0.884E-03    0.109E-02
DAV:   4    -0.158549446563E+04   -0.18658E-05   -0.15326E-05  6336   0.626E-03    0.310E-03
DAV:   5    -0.158549446663E+04   -0.99794E-06   -0.47841E-06  6120   0.498E-03
  18 F= -.15854945E+04 E0= -.15854824E+04  d E =-.198838E-03
       N       E                     dE             d eps       ncg     rms          rms(c)
DAV:   1    -0.158549459480E+04   -0.12917E-03   -0.92204E-03 11712   0.126E-01    0.156E-02
DAV:   2    -0.158549458905E+04    0.57532E-05   -0.10238E-04 14952   0.153E-02    0.122E-02
DAV:   3    -0.158549458095E+04    0.80970E-05   -0.25820E-05  8432   0.102E-02    0.807E-03
DAV:   4    -0.158549457497E+04    0.59794E-05   -0.10190E-05  6072   0.550E-03    0.432E-03
DAV:   5    -0.158549457105E+04    0.39264E-05   -0.49525E-06  6048   0.435E-03
  19 F= -.15854946E+04 E0= -.15854825E+04  d E =-.104415E-03
       N       E                     dE             d eps       ncg     rms          rms(c)
DAV:   1    -0.158549465882E+04   -0.83848E-04   -0.54766E-03 11712   0.968E-02    0.116E-02
DAV:   2    -0.158549466550E+04   -0.66782E-05   -0.40660E-05  9768   0.913E-03    0.771E-03
DAV:   3    -0.158549466805E+04   -0.25450E-05   -0.10763E-05  6530   0.578E-03    0.554E-03
DAV:   4    -0.158549467120E+04   -0.31575E-05   -0.53816E-06  6048   0.458E-03    0.213E-03
DAV:   5    -0.158549467286E+04   -0.16568E-05   -0.27618E-06  6048   0.302E-03
  20 F= -.15854947E+04 E0= -.15854826E+04  d E =-.101812E-03
       N       E                     dE             d eps       ncg     rms          rms(c)
DAV:   1    -0.158549479341E+04   -0.12221E-03   -0.11378E-02 11652   0.138E-01    0.137E-02
DAV:   2    -0.158549479614E+04   -0.27217E-05   -0.10813E-04 15680   0.133E-02    0.108E-02
DAV:   3    -0.158549479312E+04    0.30213E-05   -0.11047E-05  7122   0.677E-03    0.841E-03
DAV:   4    -0.158549478882E+04    0.42906E-05   -0.76049E-06  6048   0.469E-03    0.325E-03
DAV:   5    -0.158549478746E+04    0.13612E-05   -0.30525E-06  6048   0.370E-03
  21 F= -.15854948E+04 E0= -.15854827E+04  d E =-.114604E-03
       N       E                     dE             d eps       ncg     rms          rms(c)
DAV:   1    -0.158549486023E+04   -0.71406E-04   -0.56152E-03 11676   0.973E-02    0.978E-03
DAV:   2    -0.158549486603E+04   -0.57986E-05   -0.36826E-05  9256   0.887E-03    0.690E-03
DAV:   3    -0.158549486797E+04   -0.19391E-05   -0.99361E-06  6378   0.530E-03    0.489E-03
DAV:   4    -0.158549487071E+04   -0.27370E-05   -0.53970E-06  6048   0.427E-03    0.148E-03
DAV:   5    -0.158549487158E+04   -0.87722E-06   -0.26721E-06  6048   0.289E-03
  22 F= -.15854949E+04 E0= -.15854828E+04  d E =-.841188E-04
       N       E                     dE             d eps       ncg     rms          rms(c)
DAV:   1    -0.158549495132E+04   -0.80617E-04   -0.57055E-03 11664   0.981E-02    0.112E-02
DAV:   2    -0.158549494720E+04    0.41256E-05   -0.55025E-05 11616   0.101E-02    0.806E-03
DAV:   3    -0.158549494486E+04    0.23332E-05   -0.11022E-05  6768   0.632E-03    0.609E-03
DAV:   4    -0.158549494085E+04    0.40139E-05   -0.45294E-06  6048   0.388E-03    0.294E-03
DAV:   5    -0.158549493866E+04    0.21918E-05   -0.23642E-06  6042   0.296E-03
  23 F= -.15854949E+04 E0= -.15854829E+04  d E =-.670756E-04
       N       E                     dE             d eps       ncg     rms          rms(c)
DAV:   1    -0.158549499296E+04   -0.52110E-04   -0.36918E-03 11676   0.788E-02    0.818E-03
DAV:   2    -0.158549499702E+04   -0.40624E-05   -0.21757E-05  7496   0.714E-03    0.570E-03
DAV:   3    -0.158549499882E+04   -0.17940E-05   -0.80080E-06  6036   0.443E-03    0.394E-03
DAV:   4    -0.158549500103E+04   -0.22116E-05   -0.47252E-06  6048   0.370E-03    0.122E-03
DAV:   5    -0.158549500162E+04   -0.59356E-06   -0.24551E-06  6048   0.258E-03
  24 F= -.15854950E+04 E0= -.15854829E+04  d E =-.629632E-04
       N       E                     dE             d eps       ncg     rms          rms(c)
DAV:   1    -0.158549508066E+04   -0.79634E-04   -0.80625E-03 11640   0.116E-01    0.116E-02
DAV:   2    -0.158549508111E+04   -0.44762E-06   -0.76389E-05 13800   0.110E-02    0.874E-03
DAV:   3    -0.158549507928E+04    0.18301E-05   -0.84077E-06  6606   0.551E-03    0.673E-03
DAV:   4    -0.158549507580E+04    0.34837E-05   -0.46860E-06  6048   0.410E-03    0.267E-03
DAV:   5    -0.158549507452E+04    0.12747E-05   -0.21317E-06  6042   0.299E-03
  25 F= -.15854951E+04 E0= -.15854830E+04  d E =-.728998E-04
       N       E                     dE             d eps       ncg     rms          rms(c)
DAV:   1    -0.158549509324E+04   -0.17448E-04   -0.62492E-04 11712   0.333E-02    0.493E-03
DAV:   2    -0.158549509674E+04   -0.34944E-05   -0.52539E-06  6030   0.367E-03    0.299E-03
DAV:   3    -0.158549509781E+04   -0.10738E-05   -0.20592E-06  6024   0.279E-03    0.228E-03
DAV:   4    -0.158549509981E+04   -0.19966E-05   -0.11759E-06  6030   0.194E-03    0.905E-04
DAV:   5    -0.158549510071E+04   -0.90474E-06   -0.63304E-07  6030   0.137E-03
  26 F= -.15854951E+04 E0= -.15854830E+04  d E =-.261927E-04
       N       E                     dE             d eps       ncg     rms          rms(c)
DAV:   1    -0.158549516269E+04   -0.62881E-04   -0.58911E-03 11640   0.992E-02    0.951E-03
DAV:   2    -0.158549516272E+04   -0.28286E-07   -0.41102E-05 10040   0.890E-03    0.706E-03
DAV:   3    -0.158549516188E+04    0.83447E-06   -0.89178E-06  6202   0.504E-03    0.494E-03
DAV:   4    -0.158549515999E+04    0.18960E-05   -0.47000E-06  6048   0.404E-03    0.149E-03
DAV:   5    -0.158549515982E+04    0.17004E-06   -0.22416E-06  6042   0.280E-03
  27 F= -.15854952E+04 E0= -.15854831E+04  d E =-.591039E-04
       N       E                     dE             d eps       ncg     rms          rms(c)
DAV:   1    -0.158549522107E+04   -0.61079E-04   -0.94677E-03 11628   0.126E-01    0.124E-02
DAV:   2    -0.158549523041E+04   -0.93413E-05   -0.85836E-05 14872   0.114E-02    0.914E-03
DAV:   3    -0.158549523135E+04   -0.94211E-06   -0.74245E-06  6548   0.516E-03    0.670E-03
DAV:   4    -0.158549523330E+04   -0.19468E-05   -0.45410E-06  6048   0.434E-03    0.221E-03
DAV:   5    -0.158549523433E+04   -0.10367E-05   -0.18294E-06  6048   0.275E-03
  28 F= -.15854952E+04 E0= -.15854832E+04  d E =-.745164E-04
       N       E                     dE             d eps       ncg     rms          rms(c)
DAV:   1    -0.158549524236E+04   -0.90611E-05   -0.11251E-04 11500   0.173E-02    0.573E-03
DAV:   2    -0.158549523567E+04    0.66834E-05   -0.29874E-06  6012   0.324E-03    0.287E-03
DAV:   3    -0.158549523381E+04    0.18614E-05   -0.14777E-06  6012   0.307E-03    0.227E-03
DAV:   4    -0.158549523128E+04    0.25304E-05   -0.68205E-07  5994   0.191E-03    0.861E-04
DAV:   5    -0.158549522999E+04    0.12914E-05   -0.34347E-07  5994   0.103E-03
  29 F= -.15854952E+04 E0= -.15854832E+04  d E =0.434224E-05
       N       E                     dE             d eps       ncg     rms          rms(c)
DAV:   1    -0.158549527421E+04   -0.42926E-04   -0.47631E-03 11640   0.892E-02    0.813E-03
DAV:   2    -0.158549527576E+04   -0.15526E-05   -0.24598E-05  8048   0.770E-03    0.597E-03
DAV:   3    -0.158549527618E+04   -0.41745E-06   -0.86201E-06  6036   0.443E-03    0.323E-03
DAV:   4    -0.158549527657E+04   -0.38745E-06   -0.47771E-06  6048   0.384E-03    0.103E-03
DAV:   5    -0.158549527669E+04   -0.12315E-06   -0.23989E-06  6042   0.258E-03
  30 F= -.15854953E+04 E0= -.15854832E+04  d E =-.466979E-04
       N       E                     dE             d eps       ncg     rms          rms(c)
DAV:   1    -0.158549538712E+04   -0.11055E-03   -0.45387E-02 11592   0.275E-01    0.259E-02
DAV:   2    -0.158549540405E+04   -0.16931E-04   -0.40045E-04 17120   0.245E-02    0.196E-02
DAV:   3    -0.158549539606E+04    0.79880E-05   -0.24773E-05  8388   0.928E-03    0.137E-02
DAV:   4    -0.158549538742E+04    0.86383E-05   -0.19051E-05  7704   0.919E-03    0.509E-03
DAV:   5    -0.158549538523E+04    0.21881E-05   -0.75151E-06  6300   0.634E-03
  31 F= -.15854954E+04 E0= -.15854833E+04  d E =-.108543E-03
       N       E                     dE             d eps       ncg     rms          rms(c)
DAV:   1    -0.158549531508E+04    0.72343E-04   -0.18031E-02 11592   0.174E-01    0.184E-02
DAV:   2    -0.158549532589E+04   -0.10813E-04   -0.14143E-04 16168   0.154E-02    0.132E-02
DAV:   3    -0.158549532559E+04    0.30626E-06   -0.12677E-05  7388   0.708E-03    0.990E-03
DAV:   4    -0.158549532682E+04   -0.12394E-05   -0.92449E-06  6048   0.631E-03    0.390E-03
DAV:   5    -0.158549532855E+04   -0.17295E-05   -0.39954E-06  5994   0.415E-03
  32 F= -.15854953E+04 E0= -.15854833E+04  d E =0.566789E-04
       N       E                     dE             d eps       ncg     rms          rms(c)
DAV:   1    -0.158549537931E+04   -0.52488E-04   -0.84735E-03 11604   0.119E-01    0.111E-02
DAV:   2    -0.158549538093E+04   -0.16122E-05   -0.56882E-05 11704   0.101E-02    0.848E-03
DAV:   3    -0.158549537973E+04    0.11981E-05   -0.82492E-06  6024   0.517E-03    0.579E-03
DAV:   4    -0.158549537782E+04    0.19105E-05   -0.53752E-06  6048   0.433E-03    0.160E-03
DAV:   5    -0.158549537778E+04    0.36184E-07   -0.16002E-06  5994   0.267E-03
  33 F= -.15854954E+04 E0= -.15854833E+04  d E =-.492265E-04
       N       E                     dE             d eps       ncg     rms          rms(c)
DAV:   1    -0.158549548193E+04   -0.10411E-03   -0.13532E-01 11592   0.475E-01    0.430E-02
DAV:   2    -0.158549555116E+04   -0.69229E-04   -0.11168E-03 17112   0.410E-02    0.331E-02
DAV:   3    -0.158549553589E+04    0.15261E-04   -0.96983E-05 14048   0.152E-02    0.204E-02
DAV:   4    -0.158549552446E+04    0.11430E-04   -0.66287E-05 12688   0.145E-02    0.779E-03
DAV:   5    -0.158549552118E+04    0.32835E-05   -0.17268E-05  7464   0.836E-03
  34 F= -.15854955E+04 E0= -.15854835E+04  d E =-.143400E-03
       N       E                     dE             d eps       ncg     rms          rms(c)
DAV:   1    -0.158549551025E+04    0.14213E-04   -0.53399E-03 11592   0.965E-02    0.135E-02
DAV:   2    -0.158549549761E+04    0.12643E-04   -0.38456E-05  9288   0.979E-03    0.879E-03
DAV:   3    -0.158549549380E+04    0.38120E-05   -0.11842E-05  6872   0.718E-03    0.673E-03
DAV:   4    -0.158549548654E+04    0.72599E-05   -0.61448E-06  6048   0.479E-03    0.264E-03
DAV:   5    -0.158549548424E+04    0.22911E-05   -0.29904E-06  6048   0.326E-03
  35 F= -.15854955E+04 E0= -.15854834E+04  d E =0.369357E-04
       N       E                     dE             d eps       ncg     rms          rms(c)
DAV:   1    -0.158549550872E+04   -0.22180E-04   -0.55080E-03 11604   0.968E-02    0.106E-02
DAV:   2    -0.158549551367E+04   -0.49586E-05   -0.29386E-05  8152   0.871E-03    0.698E-03
DAV:   3    -0.158549551566E+04   -0.19865E-05   -0.89360E-06  6030   0.539E-03    0.510E-03
DAV:   4    -0.158549551816E+04   -0.24970E-05   -0.46871E-06  6048   0.415E-03    0.204E-03
DAV:   5    -0.158549551953E+04   -0.13763E-05   -0.24859E-06  6012   0.277E-03
  36 F= -.15854955E+04 E0= -.15854834E+04  d E =-.352893E-04
       N       E                     dE             d eps       ncg     rms          rms(c)
DAV:   1    -0.158549552565E+04   -0.74884E-05   -0.74274E-04 11652   0.351E-02    0.355E-03
DAV:   2    -0.158549552580E+04   -0.15477E-06   -0.55250E-06  5958   0.365E-03    0.271E-03
DAV:   3    -0.158549552580E+04   -0.51659E-09   -0.21823E-06  5952   0.244E-03    0.204E-03
DAV:   4    -0.158549552561E+04    0.19186E-06   -0.13826E-06  5958   0.192E-03    0.660E-04
DAV:   5    -0.158549552560E+04    0.12777E-07   -0.74089E-07  5958   0.157E-03
  37 F= -.15854955E+04 E0= -.15854835E+04  d E =-.606280E-05
       N       E                     dE             d eps       ncg     rms          rms(c)
DAV:   1    -0.158549553083E+04   -0.52218E-05   -0.16982E-03 11628   0.534E-02    0.544E-03
DAV:   2    -0.158549553354E+04   -0.27118E-05   -0.10617E-05  6140   0.522E-03    0.386E-03
DAV:   3    -0.158549553427E+04   -0.72570E-06   -0.39280E-06  6000   0.345E-03    0.293E-03
DAV:   4    -0.158549553595E+04   -0.16846E-05   -0.23401E-06  5976   0.262E-03    0.954E-04
DAV:   5    -0.158549553644E+04   -0.48805E-06   -0.12574E-06  5964   0.199E-03
  38 F= -.15854955E+04 E0= -.15854835E+04  d E =-.108447E-04
       N       E                     dE             d eps       ncg     rms          rms(c)
DAV:   1    -0.158549553772E+04   -0.17701E-05   -0.14158E-04 11416   0.162E-02    0.291E-03
DAV:   2    -0.158549553504E+04    0.26838E-05   -0.11539E-06  5922   0.196E-03    0.169E-03
DAV:   3    -0.158549553431E+04    0.72940E-06   -0.46094E-07  5916   0.154E-03    0.127E-03
DAV:   4    -0.158549553309E+04    0.12188E-05   -0.20129E-07  5922   0.935E-04    0.549E-04
DAV:   5    -0.158549553245E+04    0.63865E-06   -0.98997E-08  5922   0.579E-04
  39 F= -.15854955E+04 E0= -.15854835E+04  d E =0.398866E-05
       N       E                     dE             d eps       ncg     rms          rms(c)
DAV:   1    -0.158549553665E+04   -0.35608E-05   -0.45947E-04 11650   0.277E-02    0.244E-03
DAV:   2    -0.158549553664E+04    0.16342E-07   -0.23599E-06  5922   0.240E-03    0.181E-03
DAV:   3    -0.158549553660E+04    0.37587E-07   -0.80986E-07  5916   0.136E-03    0.114E-03
DAV:   4    -0.158549553651E+04    0.84065E-07   -0.48808E-07  5922   0.118E-03    0.329E-04
DAV:   5    -0.158549553654E+04   -0.21068E-07   -0.24257E-07  5922   0.822E-04
  40 F= -.15854955E+04 E0= -.15854835E+04  d E =-.408256E-05
       N       E                     dE             d eps       ncg     rms          rms(c)
DAV:   1    -0.158549554438E+04   -0.78640E-05   -0.61323E-03 11592   0.101E-01    0.952E-03
DAV:   2    -0.158549554894E+04   -0.45655E-05   -0.41788E-05 10160   0.899E-03    0.712E-03
DAV:   3    -0.158549554978E+04   -0.83946E-06   -0.86413E-06  6260   0.501E-03    0.519E-03
DAV:   4    -0.158549555135E+04   -0.15639E-05   -0.49305E-06  6048   0.393E-03    0.102E-03
DAV:   5    -0.158549555158E+04   -0.23012E-06   -0.20006E-06  6024   0.257E-03
  41 F= -.15854956E+04 E0= -.15854835E+04  d E =-.150418E-04
       N       E                     dE             d eps       ncg     rms          rms(c)
DAV:   1    -0.158549554937E+04    0.19814E-05   -0.20010E-03 11616   0.582E-02    0.615E-03
DAV:   2    -0.158549554609E+04    0.32763E-05   -0.92769E-06  5912   0.506E-03    0.422E-03
DAV:   3    -0.158549554496E+04    0.11286E-05   -0.28542E-06  5892   0.302E-03    0.319E-03
DAV:   4    -0.158549554250E+04    0.24650E-05   -0.17061E-06  5904   0.235E-03    0.927E-04
DAV:   5    -0.158549554212E+04    0.37775E-06   -0.77454E-07  5904   0.156E-03
  42 F= -.15854955E+04 E0= -.15854835E+04  d E =0.945919E-05
       N       E                     dE             d eps       ncg     rms          rms(c)
DAV:   1    -0.158549554651E+04   -0.40133E-05   -0.81243E-04 11628   0.369E-02    0.327E-03
DAV:   2    -0.158549554662E+04   -0.10895E-06   -0.35143E-06  5904   0.302E-03    0.239E-03
DAV:   3    -0.158549554663E+04   -0.82364E-08   -0.10269E-06  5892   0.158E-03    0.151E-03
DAV:   4    -0.158549554662E+04    0.56134E-08   -0.61547E-07  5904   0.138E-03    0.448E-04
DAV:   5    -0.158549554664E+04   -0.18802E-07   -0.27410E-07  5904   0.895E-04
  43 F= -.15854955E+04 E0= -.15854835E+04  d E =-.452147E-05
       N       E                     dE             d eps       ncg     rms          rms(c)
DAV:   1    -0.158549555219E+04   -0.55658E-05   -0.32416E-03 11604   0.735E-02    0.664E-03
DAV:   2    -0.158549555333E+04   -0.11397E-05   -0.17256E-05  6540   0.645E-03    0.490E-03
DAV:   3    -0.158549555369E+04   -0.36330E-06   -0.63376E-06  6006   0.378E-03    0.276E-03
DAV:   4    -0.158549555394E+04   -0.25279E-06   -0.35538E-06  5940   0.326E-03    0.792E-04
DAV:   5    -0.158549555403E+04   -0.88620E-07   -0.17872E-06  5940   0.219E-03
  44 F= -.15854956E+04 E0= -.15854835E+04  d E =-.739145E-05
