       N       E                     dE             d eps       ncg     rms          rms(c)
DAV:   1     0.219309411330E+04    0.21931E+04   -0.29026E+05 11628   0.143E+03
DAV:   2    -0.119536792146E+04   -0.33885E+04   -0.32514E+04 13462   0.296E+02
DAV:   3    -0.162568407461E+04   -0.43032E+03   -0.39736E+03 17984   0.819E+01
DAV:   4    -0.165046980729E+04   -0.24786E+02   -0.23106E+02 16368   0.172E+01
DAV:   5    -0.165153805769E+04   -0.10683E+01   -0.10487E+01 17864   0.420E+00    0.415E+01
DAV:   6    -0.160992111438E+04    0.41617E+02   -0.16532E+02 18016   0.179E+01    0.238E+01
DAV:   7    -0.159565062229E+04    0.14270E+02   -0.11219E+02 18848   0.173E+01    0.178E+01
DAV:   8    -0.158679902067E+04    0.88516E+01   -0.66710E+01 17320   0.123E+01    0.109E+01
DAV:   9    -0.158012666821E+04    0.66724E+01   -0.28374E+01 16712   0.862E+00    0.337E+00
DAV:  10    -0.158005810543E+04    0.68563E-01   -0.61809E+00 17144   0.346E+00    0.180E+00
DAV:  11    -0.158003882424E+04    0.19281E-01   -0.85389E-01 15712   0.140E+00    0.131E+00
DAV:  12    -0.158001056136E+04    0.28263E-01   -0.25996E-01 14752   0.755E-01    0.755E-01
DAV:  13    -0.157999755755E+04    0.13004E-01   -0.84042E-02 14672   0.493E-01    0.405E-01
DAV:  14    -0.157999261484E+04    0.49427E-02   -0.29076E-02 16600   0.285E-01    0.223E-01
DAV:  15    -0.157999049992E+04    0.21149E-02   -0.11610E-02 15648   0.170E-01    0.908E-02
DAV:  16    -0.157999048284E+04    0.17086E-04   -0.38063E-03 16848   0.851E-02    0.486E-02
DAV:  17    -0.157999046381E+04    0.19032E-04   -0.74091E-04 15536   0.421E-02    0.308E-02
DAV:  18    -0.157999042892E+04    0.34886E-04   -0.22274E-04 16432   0.267E-02    0.193E-02
DAV:  19    -0.157999040645E+04    0.22471E-04   -0.81990E-05 13160   0.146E-02    0.853E-03
DAV:  20    -0.157999040276E+04    0.36920E-05   -0.22613E-05  7312   0.798E-03
   1 F= -.15799904E+04 E0= -.15799942E+04  d E =-.157999E+04
       N       E                     dE             d eps       ncg     rms          rms(c)
DAV:   1    -0.158371814749E+04   -0.37277E+01   -0.14692E+03 11620   0.583E+01    0.209E+01
DAV:   2    -0.156724801505E+04    0.16470E+02   -0.89126E+01 18024   0.134E+01    0.124E+01
DAV:   3    -0.156202771016E+04    0.52203E+01   -0.51960E+01 19392   0.107E+01    0.915E+00
DAV:   4    -0.155871858983E+04    0.33091E+01   -0.19427E+01 19680   0.663E+00    0.614E+00
DAV:   5    -0.155704859493E+04    0.16700E+01   -0.11511E+01 17768   0.456E+00    0.270E+00
DAV:   6    -0.155680515912E+04    0.24344E+00   -0.29868E+00 17656   0.246E+00    0.154E+00
DAV:   7    -0.155674768293E+04    0.57476E-01   -0.59640E-01 16256   0.114E+00    0.997E-01
DAV:   8    -0.155673831495E+04    0.93680E-02   -0.16417E-01 17096   0.473E-01    0.534E-01
DAV:   9    -0.155674332188E+04   -0.50069E-02   -0.80575E-02 17776   0.314E-01    0.300E-01
DAV:  10    -0.155674468633E+04   -0.13645E-02   -0.23493E-02 16704   0.242E-01    0.251E-01
DAV:  11    -0.155674233825E+04    0.23481E-02   -0.98516E-03 17072   0.148E-01    0.119E-01
DAV:  12    -0.155674217508E+04    0.16317E-03   -0.47392E-03 18096   0.819E-02    0.595E-02
DAV:  13    -0.155674239261E+04   -0.21753E-03   -0.10539E-03 17168   0.443E-02    0.462E-02
DAV:  14    -0.155674247871E+04   -0.86104E-04   -0.51794E-04 16448   0.328E-02    0.244E-02
DAV:  15    -0.155674249280E+04   -0.14088E-04   -0.20621E-04 16704   0.181E-02    0.134E-02
DAV:  16    -0.155674249155E+04    0.12471E-05   -0.35267E-05  8176   0.973E-03
   2 F= -.15567425E+04 E0= -.15567464E+04  d E =0.232479E+02
       N       E                     dE             d eps       ncg     rms          rms(c)
DAV:   1    -0.159836009343E+04   -0.41618E+02   -0.71040E+02 11620   0.445E+01    0.149E+01
DAV:   2    -0.158895223344E+04    0.94079E+01   -0.26359E+01 16792   0.843E+00    0.722E+00
DAV:   3    -0.158740455889E+04    0.15477E+01   -0.15122E+01 17208   0.608E+00    0.575E+00
DAV:   4    -0.158596392359E+04    0.14406E+01   -0.69503E+00 17832   0.451E+00    0.332E+00
DAV:   5    -0.158540085925E+04    0.56306E+00   -0.35503E+00 16840   0.294E+00    0.120E+00
DAV:   6    -0.158536994865E+04    0.30911E-01   -0.79499E-01 15880   0.139E+00    0.743E-01
DAV:   7    -0.158536588612E+04    0.40625E-02   -0.14567E-01 15352   0.588E-01    0.525E-01
DAV:   8    -0.158536938066E+04   -0.34945E-02   -0.39226E-02 15656   0.258E-01    0.274E-01
DAV:   9    -0.158537836698E+04   -0.89863E-02   -0.29873E-02 16376   0.209E-01    0.207E-01
DAV:  10    -0.158537782914E+04    0.53784E-03   -0.55441E-03 16064   0.138E-01    0.142E-01
DAV:  11    -0.158537718054E+04    0.64859E-03   -0.43520E-03 16920   0.884E-02    0.480E-02
DAV:  12    -0.158537752497E+04   -0.34443E-03   -0.14250E-03 16696   0.489E-02    0.487E-02
DAV:  13    -0.158537763691E+04   -0.11194E-03   -0.28443E-04 15208   0.259E-02    0.269E-02
DAV:  14    -0.158537762955E+04    0.73654E-05   -0.11459E-04 13784   0.162E-02    0.104E-02
DAV:  15    -0.158537762514E+04    0.44025E-05   -0.32558E-05  7408   0.830E-03
   3 F= -.15853776E+04 E0= -.15853662E+04  d E =-.286351E+02
       N       E                     dE             d eps       ncg     rms          rms(c)
DAV:   1    -0.158550688897E+04   -0.12926E+00   -0.13772E+01 11620   0.489E+00    0.668E-01
DAV:   2    -0.158551683010E+04   -0.99411E-02   -0.23194E-01 16704   0.743E-01    0.546E-01
DAV:   3    -0.158550419045E+04    0.12640E-01   -0.72787E-02 17984   0.453E-01    0.347E-01
DAV:   4    -0.158550123740E+04    0.29531E-02   -0.17863E-02 16984   0.206E-01    0.226E-01
DAV:   5    -0.158549983564E+04    0.14018E-02   -0.10249E-02 15776   0.160E-01    0.108E-01
DAV:   6    -0.158549954248E+04    0.29316E-03   -0.36697E-03 16248   0.104E-01    0.634E-02
DAV:   7    -0.158549941704E+04    0.12544E-03   -0.10601E-03 16096   0.527E-02    0.345E-02
DAV:   8    -0.158549940097E+04    0.16077E-04   -0.23964E-04 16104   0.219E-02    0.212E-02
DAV:   9    -0.158549939649E+04    0.44812E-05   -0.80733E-05 13888   0.151E-02
   4 F= -.15854994E+04 E0= -.15854890E+04  d E =-.121771E+00
       N       E                     dE             d eps       ncg     rms          rms(c)
DAV:   1    -0.158552529146E+04   -0.25890E-01   -0.28706E+00 11620   0.221E+00    0.326E-01
DAV:   2    -0.158553156479E+04   -0.62733E-02   -0.71652E-02 17600   0.468E-01    0.358E-01
DAV:   3    -0.158552299300E+04    0.85718E-02   -0.31481E-02 17648   0.301E-01    0.161E-01
DAV:   4    -0.158552229925E+04    0.69375E-03   -0.47474E-03 17184   0.103E-01    0.114E-01
DAV:   5    -0.158552193976E+04    0.35949E-03   -0.22806E-03 16392   0.771E-02    0.651E-02
DAV:   6    -0.158552176683E+04    0.17293E-03   -0.11543E-03 15984   0.561E-02    0.349E-02
DAV:   7    -0.158552172283E+04    0.43999E-04   -0.31988E-04 15248   0.274E-02    0.188E-02
DAV:   8    -0.158552172447E+04   -0.16431E-05   -0.64591E-05 12464   0.120E-02
   5 F= -.15855217E+04 E0= -.15855110E+04  d E =-.223280E-01
       N       E                     dE             d eps       ncg     rms          rms(c)
DAV:   1    -0.158552969496E+04   -0.79721E-02   -0.61402E-01 11746   0.108E+00    0.209E-01
DAV:   2    -0.158552899719E+04    0.69777E-03   -0.98163E-03 16424   0.157E-01    0.138E-01
DAV:   3    -0.158552840420E+04    0.59299E-03   -0.44568E-03 18032   0.114E-01    0.988E-02
DAV:   4    -0.158552804734E+04    0.35686E-03   -0.14938E-03 15920   0.594E-02    0.467E-02
DAV:   5    -0.158552805319E+04   -0.58526E-05   -0.69379E-04 16160   0.438E-02    0.302E-02
DAV:   6    -0.158552802040E+04    0.32789E-04   -0.25418E-04 15840   0.277E-02    0.132E-02
DAV:   7    -0.158552801953E+04    0.87852E-06   -0.41951E-05  9416   0.105E-02
   6 F= -.15855280E+04 E0= -.15855177E+04  d E =-.629505E-02
       N       E                     dE             d eps       ncg     rms          rms(c)
DAV:   1    -0.158553487749E+04   -0.68571E-02   -0.37768E-01 11704   0.829E-01    0.162E-01
DAV:   2    -0.158553529080E+04   -0.41330E-03   -0.11311E-02 18032   0.189E-01    0.153E-01
DAV:   3    -0.158553377457E+04    0.15162E-02   -0.59052E-03 18328   0.130E-01    0.737E-02
DAV:   4    -0.158553356452E+04    0.21004E-03   -0.10279E-03 16296   0.483E-02    0.479E-02
DAV:   5    -0.158553345380E+04    0.11072E-03   -0.50785E-04 16120   0.375E-02    0.267E-02
DAV:   6    -0.158553340846E+04    0.45339E-04   -0.21635E-04 16056   0.250E-02    0.142E-02
DAV:   7    -0.158553339855E+04    0.99121E-05   -0.53849E-05 11872   0.118E-02
   7 F= -.15855334E+04 E0= -.15855228E+04  d E =-.537902E-02
       N       E                     dE             d eps       ncg     rms          rms(c)
DAV:   1    -0.158553598529E+04   -0.25768E-02   -0.27570E-01 11690   0.681E-01    0.817E-02
DAV:   2    -0.158553661915E+04   -0.63385E-03   -0.46507E-03 17232   0.120E-01    0.985E-02
DAV:   3    -0.158553599671E+04    0.62243E-03   -0.19834E-03 17473   0.772E-02    0.442E-02
DAV:   4    -0.158553598577E+04    0.10943E-04   -0.32302E-04 17072   0.259E-02    0.306E-02
DAV:   5    -0.158553597391E+04    0.11862E-04   -0.16940E-04 15736   0.218E-02    0.144E-02
DAV:   6    -0.158553597015E+04    0.37547E-05   -0.66749E-05 12616   0.136E-02
   8 F= -.15855360E+04 E0= -.15855255E+04  d E =-.257160E-02
       N       E                     dE             d eps       ncg     rms          rms(c)
DAV:   1    -0.158553726324E+04   -0.12893E-02   -0.10341E-01 11760   0.427E-01    0.708E-02
DAV:   2    -0.158553737524E+04   -0.11200E-03   -0.23359E-03 18056   0.850E-02    0.699E-02
DAV:   3    -0.158553705756E+04    0.31768E-03   -0.11672E-03 18409   0.585E-02    0.334E-02
DAV:   4    -0.158553701022E+04    0.47342E-04   -0.19569E-04 16152   0.208E-02    0.221E-02
DAV:   5    -0.158553697998E+04    0.30246E-04   -0.94577E-05 14496   0.169E-02    0.124E-02
DAV:   6    -0.158553696570E+04    0.14273E-04   -0.36590E-05  9176   0.116E-02    0.577E-03
DAV:   7    -0.158553696427E+04    0.14300E-05   -0.10569E-05  6624   0.619E-03
   9 F= -.15855370E+04 E0= -.15855264E+04  d E =-.994118E-03
       N       E                     dE             d eps       ncg     rms          rms(c)
DAV:   1    -0.158553771281E+04   -0.74711E-03   -0.41174E-02 11774   0.272E-01    0.452E-02
DAV:   2    -0.158553773242E+04   -0.19605E-04   -0.56767E-04 16912   0.380E-02    0.333E-02
DAV:   3    -0.158553769552E+04    0.36896E-04   -0.24035E-04 17568   0.270E-02    0.222E-02
DAV:   4    -0.158553769452E+04    0.10059E-05   -0.64095E-05 12288   0.124E-02    0.105E-02
DAV:   5    -0.158553770259E+04   -0.80678E-05   -0.23166E-05  8272   0.987E-03
  10 F= -.15855377E+04 E0= -.15855272E+04  d E =-.738313E-03
       N       E                     dE             d eps       ncg     rms          rms(c)
DAV:   1    -0.158553838624E+04   -0.69173E-03   -0.61794E-02 11732   0.322E-01    0.382E-02
DAV:   2    -0.158553847333E+04   -0.87082E-04   -0.93174E-04 18096   0.505E-02    0.419E-02
DAV:   3    -0.158553836759E+04    0.10573E-03   -0.37032E-04 18353   0.334E-02    0.212E-02
DAV:   4    -0.158553835411E+04    0.13483E-04   -0.48969E-05 10592   0.112E-02    0.141E-02
DAV:   5    -0.158553834320E+04    0.10912E-04   -0.25399E-05  8152   0.103E-02    0.646E-03
DAV:   6    -0.158553833946E+04    0.37374E-05   -0.96796E-06  6848   0.732E-03
  11 F= -.15855383E+04 E0= -.15855278E+04  d E =-.636876E-03
       N       E                     dE             d eps       ncg     rms          rms(c)
DAV:   1    -0.158553882808E+04   -0.48489E-03   -0.58704E-02 11676   0.314E-01    0.333E-02
DAV:   2    -0.158553889174E+04   -0.63652E-04   -0.61670E-04 17400   0.371E-02    0.306E-02
DAV:   3    -0.158553885537E+04    0.36366E-04   -0.16414E-04 16541   0.231E-02    0.197E-02
DAV:   4    -0.158553885731E+04   -0.19436E-05   -0.41228E-05  9720   0.986E-03    0.866E-03
DAV:   5    -0.158553885959E+04   -0.22794E-05   -0.14467E-05  7547   0.841E-03
  12 F= -.15855389E+04 E0= -.15855284E+04  d E =-.520132E-03
       N       E                     dE             d eps       ncg     rms          rms(c)
DAV:   1    -0.158553905866E+04   -0.20135E-03   -0.62500E-03 11788   0.109E-01    0.232E-02
DAV:   2    -0.158553902642E+04    0.32240E-04   -0.11462E-04 15184   0.171E-02    0.144E-02
DAV:   3    -0.158553901378E+04    0.12641E-04   -0.45904E-05 10200   0.130E-02    0.991E-03
DAV:   4    -0.158553900196E+04    0.11818E-04   -0.14259E-05  7136   0.760E-03    0.545E-03
DAV:   5    -0.158553899454E+04    0.74265E-05   -0.70097E-06  6248   0.524E-03
  13 F= -.15855390E+04 E0= -.15855284E+04  d E =-.134944E-03
       N       E                     dE             d eps       ncg     rms          rms(c)
DAV:   1    -0.158553930393E+04   -0.30196E-03   -0.29361E-02 11718   0.222E-01    0.224E-02
DAV:   2    -0.158553933162E+04   -0.27691E-04   -0.27774E-04 17136   0.237E-02    0.197E-02
DAV:   3    -0.158553931968E+04    0.11935E-04   -0.48852E-05 10571   0.139E-02    0.139E-02
DAV:   4    -0.158553932168E+04   -0.19934E-05   -0.23551E-05  6888   0.784E-03    0.430E-03
DAV:   5    -0.158553932289E+04   -0.12111E-05   -0.75585E-06  6505   0.616E-03
  14 F= -.15855393E+04 E0= -.15855288E+04  d E =-.328352E-03
       N       E                     dE             d eps       ncg     rms          rms(c)
DAV:   1    -0.158553964145E+04   -0.31978E-03   -0.38965E-02 11676   0.255E-01    0.253E-02
DAV:   2    -0.158553966167E+04   -0.20217E-04   -0.37590E-04 17088   0.276E-02    0.222E-02
DAV:   3    -0.158553964353E+04    0.18143E-04   -0.78218E-05 13803   0.166E-02    0.155E-02
DAV:   4    -0.158553963396E+04    0.95664E-05   -0.22947E-05  7336   0.790E-03    0.784E-03
DAV:   5    -0.158553962934E+04    0.46174E-05   -0.10790E-05  6792   0.708E-03
  15 F= -.15855396E+04 E0= -.15855291E+04  d E =-.306455E-03
       N       E                     dE             d eps       ncg     rms          rms(c)
DAV:   1    -0.158553970869E+04   -0.74725E-04   -0.34574E-03 11788   0.800E-02    0.142E-02
DAV:   2    -0.158553971457E+04   -0.58800E-05   -0.32284E-05  8104   0.938E-03    0.787E-03
DAV:   3    -0.158553971833E+04   -0.37624E-05   -0.12683E-05  6712   0.706E-03    0.581E-03
DAV:   4    -0.158553972180E+04   -0.34720E-05   -0.65202E-06  6128   0.528E-03    0.283E-03
DAV:   5    -0.158553972480E+04   -0.30005E-05   -0.35612E-06  6104   0.337E-03
  16 F= -.15855397E+04 E0= -.15855292E+04  d E =-.954569E-04
       N       E                     dE             d eps       ncg     rms          rms(c)
DAV:   1    -0.158553992098E+04   -0.19918E-03   -0.16156E-02 11704   0.165E-01    0.178E-02
DAV:   2    -0.158553992244E+04   -0.14583E-05   -0.16341E-04 16664   0.171E-02    0.140E-02
DAV:   3    -0.158553991551E+04    0.69346E-05   -0.21355E-05  8195   0.987E-03    0.105E-02
DAV:   4    -0.158553990949E+04    0.60201E-05   -0.12654E-05  6272   0.629E-03    0.550E-03
DAV:   5    -0.158553990589E+04    0.36031E-05   -0.63932E-06  6121   0.529E-03
  17 F= -.15855399E+04 E0= -.15855294E+04  d E =-.181084E-03
       N       E                     dE             d eps       ncg     rms          rms(c)
DAV:   1    -0.158554007227E+04   -0.16278E-03   -0.16965E-02 11676   0.168E-01    0.157E-02
DAV:   2    -0.158554008560E+04   -0.13333E-04   -0.14613E-04 16360   0.158E-02    0.126E-02
DAV:   3    -0.158554008352E+04    0.20782E-05   -0.12605E-05  7522   0.752E-03    0.993E-03
DAV:   4    -0.158554008466E+04   -0.11385E-05   -0.11896E-05  6160   0.562E-03    0.229E-03
DAV:   5    -0.158554008504E+04   -0.37428E-06   -0.31045E-06  6112   0.402E-03
  18 F= -.15855401E+04 E0= -.15855296E+04  d E =-.179152E-03
       N       E                     dE             d eps       ncg     rms          rms(c)
DAV:   1    -0.158554025854E+04   -0.17388E-03   -0.20045E-02 11662   0.183E-01    0.191E-02
DAV:   2    -0.158554025778E+04    0.75753E-06   -0.18456E-04 16608   0.179E-02    0.142E-02
DAV:   3    -0.158554025159E+04    0.61988E-05   -0.20366E-05  8097   0.947E-03    0.109E-02
DAV:   4    -0.158554024410E+04    0.74802E-05   -0.12311E-05  6536   0.675E-03    0.549E-03
DAV:   5    -0.158554023987E+04    0.42385E-05   -0.63519E-06  6128   0.522E-03
  19 F= -.15855402E+04 E0= -.15855297E+04  d E =-.154829E-03
       N       E                     dE             d eps       ncg     rms          rms(c)
DAV:   1    -0.158554027877E+04   -0.34666E-04   -0.12037E-03 11774   0.483E-02    0.101E-02
DAV:   2    -0.158554028430E+04   -0.55315E-05   -0.13500E-05  6144   0.640E-03    0.574E-03
DAV:   3    -0.158554028623E+04   -0.19300E-05   -0.58118E-06  6105   0.541E-03    0.440E-03
DAV:   4    -0.158554028953E+04   -0.32974E-05   -0.31382E-06  6104   0.362E-03    0.180E-03
DAV:   5    -0.158554029178E+04   -0.22491E-05   -0.16625E-06  6104   0.224E-03
  20 F= -.15855403E+04 E0= -.15855298E+04  d E =-.519120E-04
       N       E                     dE             d eps       ncg     rms          rms(c)
DAV:   1    -0.158554041341E+04   -0.12388E-03   -0.11717E-02 11704   0.140E-01    0.136E-02
DAV:   2    -0.158554041629E+04   -0.28780E-05   -0.10257E-04 15440   0.127E-02    0.104E-02
DAV:   3    -0.158554041404E+04    0.22476E-05   -0.86082E-06  6912   0.585E-03    0.798E-03
DAV:   4    -0.158554041040E+04    0.36410E-05   -0.65764E-06  6176   0.494E-03    0.296E-03
DAV:   5    -0.158554040933E+04    0.10740E-05   -0.26945E-06  6104   0.367E-03
  21 F= -.15855404E+04 E0= -.15855299E+04  d E =-.117549E-03
       N       E                     dE             d eps       ncg     rms          rms(c)
DAV:   1    -0.158554052451E+04   -0.11411E-03   -0.15023E-02 11662   0.158E-01    0.148E-02
DAV:   2    -0.158554053659E+04   -0.12076E-04   -0.12868E-04 16288   0.141E-02    0.112E-02
DAV:   3    -0.158554053669E+04   -0.10147E-06   -0.84597E-06  6941   0.572E-03    0.852E-03
DAV:   4    -0.158554053801E+04   -0.13239E-05   -0.70723E-06  6288   0.520E-03    0.244E-03
DAV:   5    -0.158554053885E+04   -0.83629E-06   -0.24626E-06  6104   0.348E-03
  22 F= -.15855405E+04 E0= -.15855300E+04  d E =-.129520E-03
       N       E                     dE             d eps       ncg     rms          rms(c)
DAV:   1    -0.158554057901E+04   -0.40995E-04   -0.11830E-03 11746   0.465E-02    0.830E-03
DAV:   2    -0.158554057014E+04    0.88682E-05   -0.11549E-05  6099   0.601E-03    0.463E-03
DAV:   3    -0.158554056770E+04    0.24382E-05   -0.46914E-06  6069   0.495E-03    0.346E-03
DAV:   4    -0.158554056442E+04    0.32762E-05   -0.22705E-06  6083   0.325E-03    0.168E-03
DAV:   5    -0.158554056254E+04    0.18790E-05   -0.13262E-06  6083   0.206E-03
  23 F= -.15855406E+04 E0= -.15855300E+04  d E =-.236968E-04
       N       E                     dE             d eps       ncg     rms          rms(c)
DAV:   1    -0.158554063477E+04   -0.70350E-04   -0.68222E-03 11676   0.107E-01    0.107E-02
DAV:   2    -0.158554064075E+04   -0.59733E-05   -0.55112E-05 11800   0.963E-03    0.799E-03
DAV:   3    -0.158554064168E+04   -0.93338E-06   -0.84715E-06  6441   0.521E-03    0.587E-03
DAV:   4    -0.158554064314E+04   -0.14644E-05   -0.42601E-06  6104   0.404E-03    0.183E-03
DAV:   5    -0.158554064391E+04   -0.76316E-06   -0.18291E-06  6076   0.267E-03
  24 F= -.15855406E+04 E0= -.15855301E+04  d E =-.813630E-04
       N       E                     dE             d eps       ncg     rms          rms(c)
DAV:   1    -0.158554071692E+04   -0.73772E-04   -0.72578E-03 11676   0.110E-01    0.106E-02
DAV:   2    -0.158554071700E+04   -0.82298E-07   -0.60292E-05 12264   0.999E-03    0.797E-03
DAV:   3    -0.158554071551E+04    0.14925E-05   -0.83873E-06  6379   0.531E-03    0.591E-03
DAV:   4    -0.158554071266E+04    0.28467E-05   -0.42660E-06  6104   0.400E-03    0.232E-03
DAV:   5    -0.158554071168E+04    0.98300E-06   -0.19660E-06  6083   0.295E-03
  25 F= -.15855407E+04 E0= -.15855302E+04  d E =-.677687E-04
       N       E                     dE             d eps       ncg     rms          rms(c)
DAV:   1    -0.158554074732E+04   -0.34658E-04   -0.24954E-03 11690   0.651E-02    0.751E-03
DAV:   2    -0.158554075161E+04   -0.42946E-05   -0.15969E-05  6296   0.624E-03    0.488E-03
DAV:   3    -0.158554075349E+04   -0.18744E-05   -0.61123E-06  6092   0.412E-03    0.358E-03
DAV:   4    -0.158554075548E+04   -0.19899E-05   -0.33012E-06  6083   0.327E-03    0.159E-03
DAV:   5    -0.158554075673E+04   -0.12582E-05   -0.18961E-06  6083   0.227E-03
  26 F= -.15855408E+04 E0= -.15855302E+04  d E =-.450580E-04
       N       E                     dE             d eps       ncg     rms          rms(c)
DAV:   1    -0.158554080426E+04   -0.48780E-04   -0.31995E-03 11676   0.732E-02    0.821E-03
DAV:   2    -0.158554080029E+04    0.39643E-05   -0.21028E-05  8168   0.724E-03    0.552E-03
DAV:   3    -0.158554079893E+04    0.13583E-05   -0.78298E-06  6234   0.487E-03    0.396E-03
DAV:   4    -0.158554079671E+04    0.22175E-05   -0.42382E-06  6083   0.379E-03    0.198E-03
DAV:   5    -0.158554079571E+04    0.10028E-05   -0.25508E-06  6083   0.283E-03
  27 F= -.15855408E+04 E0= -.15855303E+04  d E =-.389786E-04
       N       E                     dE             d eps       ncg     rms          rms(c)
DAV:   1    -0.158554083478E+04   -0.38060E-04   -0.34602E-03 11676   0.759E-02    0.762E-03
DAV:   2    -0.158554083823E+04   -0.34528E-05   -0.22735E-05  7472   0.722E-03    0.550E-03
DAV:   3    -0.158554083947E+04   -0.12466E-05   -0.78755E-06  6086   0.451E-03    0.400E-03
DAV:   4    -0.158554084115E+04   -0.16762E-05   -0.46712E-06  6083   0.372E-03    0.120E-03
DAV:   5    -0.158554084172E+04   -0.56545E-06   -0.24689E-06  6083   0.268E-03
  28 F= -.15855408E+04 E0= -.15855303E+04  d E =-.460039E-04
       N       E                     dE             d eps       ncg     rms          rms(c)
DAV:   1    -0.158554087935E+04   -0.38199E-04   -0.27535E-03 11690   0.678E-02    0.723E-03
DAV:   2    -0.158554087647E+04    0.28808E-05   -0.18586E-05  7248   0.680E-03    0.495E-03
DAV:   3    -0.158554087546E+04    0.10128E-05   -0.69747E-06  6113   0.454E-03    0.353E-03
DAV:   4    -0.158554087365E+04    0.18036E-05   -0.38681E-06  6083   0.358E-03    0.172E-03
DAV:   5    -0.158554087290E+04    0.75200E-06   -0.23230E-06  6083   0.273E-03
  29 F= -.15855409E+04 E0= -.15855303E+04  d E =-.311840E-04
       N       E                     dE             d eps       ncg     rms          rms(c)
DAV:   1    -0.158554089632E+04   -0.22672E-04   -0.16080E-03 11690   0.519E-02    0.570E-03
DAV:   2    -0.158554089931E+04   -0.29817E-05   -0.11297E-05  6422   0.526E-03    0.396E-03
DAV:   3    -0.158554090038E+04   -0.10730E-05   -0.45492E-06  6064   0.356E-03    0.297E-03
DAV:   4    -0.158554090197E+04   -0.15907E-05   -0.26264E-06  6041   0.277E-03    0.119E-03
DAV:   5    -0.158554090275E+04   -0.78143E-06   -0.15014E-06  6041   0.208E-03
  30 F= -.15855409E+04 E0= -.15855304E+04  d E =-.298513E-04
       N       E                     dE             d eps       ncg     rms          rms(c)
DAV:   1    -0.158554093458E+04   -0.32611E-04   -0.25463E-03 11676   0.650E-02    0.641E-03
DAV:   2    -0.158554093334E+04    0.12454E-05   -0.15658E-05  7200   0.620E-03    0.460E-03
DAV:   3    -0.158554093274E+04    0.59492E-06   -0.58939E-06  6130   0.397E-03    0.313E-03
DAV:   4    -0.158554093153E+04    0.12141E-05   -0.34243E-06  6062   0.330E-03    0.120E-03
DAV:   5    -0.158554093133E+04    0.19320E-06   -0.19583E-06  6055   0.249E-03
  31 F= -.15855409E+04 E0= -.15855304E+04  d E =-.285815E-04
       N       E                     dE             d eps       ncg     rms          rms(c)
DAV:   1    -0.158554095919E+04   -0.27664E-04   -0.31055E-03 11648   0.719E-02    0.721E-03
DAV:   2    -0.158554096262E+04   -0.34317E-05   -0.19936E-05  7512   0.684E-03    0.512E-03
DAV:   3    -0.158554096408E+04   -0.14597E-05   -0.73112E-06  6094   0.430E-03    0.356E-03
DAV:   4    -0.158554096565E+04   -0.15738E-05   -0.41532E-06  6062   0.356E-03    0.125E-03
DAV:   5    -0.158554096629E+04   -0.63701E-06   -0.23026E-06  6055   0.257E-03
  32 F= -.15855410E+04 E0= -.15855304E+04  d E =-.349589E-04
       N       E                     dE             d eps       ncg     rms          rms(c)
DAV:   1    -0.158554098171E+04   -0.16051E-04   -0.46772E-04 11718   0.286E-02    0.459E-03
DAV:   2    -0.158554097797E+04    0.37404E-05   -0.50998E-06  5999   0.369E-03    0.264E-03
DAV:   3    -0.158554097681E+04    0.11562E-05   -0.22943E-06  5985   0.294E-03    0.194E-03
DAV:   4    -0.158554097549E+04    0.13148E-05   -0.11677E-06  5999   0.205E-03    0.109E-03
DAV:   5    -0.158554097457E+04    0.92672E-06   -0.73400E-07  5999   0.150E-03
  33 F= -.15855410E+04 E0= -.15855304E+04  d E =-.827560E-05
       N       E                     dE             d eps       ncg     rms          rms(c)
DAV:   1    -0.158554099644E+04   -0.20950E-04   -0.19933E-03 11648   0.575E-02    0.550E-03
DAV:   2    -0.158554099774E+04   -0.12946E-05   -0.11444E-05  6643   0.527E-03    0.405E-03
DAV:   3    -0.158554099824E+04   -0.49859E-06   -0.42414E-06  6055   0.326E-03    0.285E-03
DAV:   4    -0.158554099890E+04   -0.66023E-06   -0.27197E-06  6020   0.280E-03    0.629E-04
DAV:   5    -0.158554099898E+04   -0.79503E-07   -0.13334E-06  5992   0.196E-03
  34 F= -.15855410E+04 E0= -.15855305E+04  d E =-.244100E-04
       N       E                     dE             d eps       ncg     rms          rms(c)
DAV:   1    -0.158554104862E+04   -0.49727E-04   -0.12491E-02 11634   0.144E-01    0.136E-02
DAV:   2    -0.158554105196E+04   -0.33348E-05   -0.11259E-04 15904   0.130E-02    0.103E-02
DAV:   3    -0.158554104894E+04    0.30172E-05   -0.78290E-06  6785   0.510E-03    0.695E-03
DAV:   4    -0.158554104588E+04    0.30633E-05   -0.55758E-06  6200   0.497E-03    0.283E-03
DAV:   5    -0.158554104490E+04    0.97691E-06   -0.22570E-06  6120   0.371E-03
  35 F= -.15855410E+04 E0= -.15855305E+04  d E =-.459248E-04
       N       E                     dE             d eps       ncg     rms          rms(c)
DAV:   1    -0.158554101811E+04    0.27773E-04   -0.35472E-03 11648   0.774E-02    0.887E-03
DAV:   2    -0.158554102169E+04   -0.35865E-05   -0.18653E-05  6515   0.697E-03    0.580E-03
DAV:   3    -0.158554102351E+04   -0.18165E-05   -0.63874E-06  6006   0.418E-03    0.383E-03
DAV:   4    -0.158554102522E+04   -0.17087E-05   -0.33899E-06  6020   0.341E-03    0.193E-03
DAV:   5    -0.158554102622E+04   -0.10071E-05   -0.18719E-06  6020   0.244E-03
  36 F= -.15855410E+04 E0= -.15855305E+04  d E =0.186776E-04
       N       E                     dE             d eps       ncg     rms          rms(c)
DAV:   1    -0.158554105596E+04   -0.30744E-04   -0.45941E-03 11648   0.875E-02    0.782E-03
DAV:   2    -0.158554105649E+04   -0.52680E-06   -0.20833E-05  6539   0.729E-03    0.573E-03
DAV:   3    -0.158554105633E+04    0.16222E-06   -0.63880E-06  6006   0.401E-03    0.371E-03
DAV:   4    -0.158554105595E+04    0.37369E-06   -0.38507E-06  6020   0.354E-03    0.104E-03
DAV:   5    -0.158554105604E+04   -0.87151E-07   -0.17709E-06  6020   0.233E-03
  37 F= -.15855411E+04 E0= -.15855305E+04  d E =-.298151E-04
       N       E                     dE             d eps       ncg     rms          rms(c)
DAV:   1    -0.158554111444E+04   -0.58490E-04   -0.38941E-02 11620   0.254E-01    0.230E-02
DAV:   2    -0.158554113412E+04   -0.19682E-04   -0.33236E-04 17088   0.222E-02    0.178E-02
DAV:   3    -0.158554112840E+04    0.57269E-05   -0.19627E-05  7929   0.824E-03    0.110E-02
DAV:   4    -0.158554112448E+04    0.39184E-05   -0.15775E-05  7592   0.856E-03    0.386E-03
DAV:   5    -0.158554112369E+04    0.79112E-06   -0.50314E-06  6264   0.548E-03
  38 F= -.15855411E+04 E0= -.15855306E+04  d E =-.676489E-04
       N       E                     dE             d eps       ncg     rms          rms(c)
DAV:   1    -0.158554115042E+04   -0.25939E-04   -0.34010E-02 11620   0.238E-01    0.210E-02
DAV:   2    -0.158554116914E+04   -0.18720E-04   -0.28976E-04 16984   0.209E-02    0.163E-02
DAV:   3    -0.158554116537E+04    0.37696E-05   -0.15525E-05  7784   0.787E-03    0.115E-02
DAV:   4    -0.158554116180E+04    0.35666E-05   -0.15163E-05  7104   0.786E-03    0.372E-03
DAV:   5    -0.158554116121E+04    0.59291E-06   -0.49966E-06  6200   0.539E-03
  39 F= -.15855412E+04 E0= -.15855306E+04  d E =-.375211E-04
       N       E                     dE             d eps       ncg     rms          rms(c)
DAV:   1    -0.158554116467E+04   -0.28628E-05   -0.22448E-02 11634   0.193E-01    0.170E-02
DAV:   2    -0.158554117835E+04   -0.13684E-04   -0.19288E-04 16656   0.170E-02    0.132E-02
DAV:   3    -0.158554117624E+04    0.21120E-05   -0.10822E-05  7233   0.638E-03    0.917E-03
DAV:   4    -0.158554117500E+04    0.12365E-05   -0.99169E-06  6456   0.645E-03    0.318E-03
DAV:   5    -0.158554117467E+04    0.32677E-06   -0.33892E-06  6152   0.458E-03
  40 F= -.15855412E+04 E0= -.15855306E+04  d E =-.134646E-04
