       N       E                     dE             d eps       ncg     rms          rms(c)
DAV:   1     0.219263412345E+04    0.21926E+04   -0.29026E+05 11628   0.143E+03
DAV:   2    -0.119463509627E+04   -0.33873E+04   -0.32500E+04 13454   0.296E+02
DAV:   3    -0.162610956770E+04   -0.43147E+03   -0.39816E+03 17960   0.820E+01
DAV:   4    -0.165081044012E+04   -0.24701E+02   -0.23032E+02 16328   0.172E+01
DAV:   5    -0.165187187287E+04   -0.10614E+01   -0.10429E+01 17776   0.421E+00    0.415E+01
DAV:   6    -0.161748601115E+04    0.34386E+02   -0.18925E+02 19088   0.206E+01    0.257E+01
DAV:   7    -0.159654196050E+04    0.20944E+02   -0.12571E+02 19248   0.186E+01    0.189E+01
DAV:   8    -0.158723612283E+04    0.93058E+01   -0.84954E+01 16760   0.121E+01    0.112E+01
DAV:   9    -0.158085278652E+04    0.63833E+01   -0.30337E+01 17192   0.921E+00    0.440E+00
DAV:  10    -0.158017842003E+04    0.67437E+00   -0.75438E+00 17520   0.430E+00    0.202E+00
DAV:  11    -0.158015782340E+04    0.20597E-01   -0.15492E+00 15520   0.173E+00    0.137E+00
DAV:  12    -0.158013012403E+04    0.27699E-01   -0.31805E-01 14640   0.820E-01    0.768E-01
DAV:  13    -0.158012150814E+04    0.86159E-02   -0.99845E-02 16904   0.560E-01    0.485E-01
DAV:  14    -0.158011103041E+04    0.10478E-01   -0.43223E-02 17280   0.356E-01    0.221E-01
DAV:  15    -0.158010973181E+04    0.12986E-02   -0.14286E-02 16264   0.163E-01    0.886E-02
DAV:  16    -0.158010972574E+04    0.60680E-05   -0.28375E-03 15888   0.859E-02    0.604E-02
DAV:  17    -0.158010968293E+04    0.42809E-04   -0.91209E-04 16112   0.471E-02    0.402E-02
DAV:  18    -0.158010965068E+04    0.32256E-04   -0.33412E-04 15752   0.282E-02    0.189E-02
DAV:  19    -0.158010964181E+04    0.88666E-05   -0.97412E-05 13552   0.150E-02
   1 F= -.15801096E+04 E0= -.15801171E+04  d E =-.158011E+04
       N       E                     dE             d eps       ncg     rms          rms(c)
DAV:   1    -0.158464812078E+04   -0.45385E+01   -0.15424E+03 11620   0.594E+01    0.212E+01
DAV:   2    -0.157047483791E+04    0.14173E+02   -0.98757E+01 18320   0.145E+01    0.139E+01
DAV:   3    -0.156286580793E+04    0.76090E+01   -0.62339E+01 19288   0.119E+01    0.969E+00
DAV:   4    -0.155885169717E+04    0.40141E+01   -0.23228E+01 20064   0.680E+00    0.621E+00
DAV:   5    -0.155728891776E+04    0.15628E+01   -0.12514E+01 17440   0.469E+00    0.259E+00
DAV:   6    -0.155706634644E+04    0.22257E+00   -0.30363E+00 17688   0.262E+00    0.163E+00
DAV:   7    -0.155699675954E+04    0.69587E-01   -0.66192E-01 16544   0.123E+00    0.102E+00
DAV:   8    -0.155698542294E+04    0.11337E-01   -0.17948E-01 17336   0.501E-01    0.558E-01
DAV:   9    -0.155698965870E+04   -0.42358E-02   -0.84180E-02 17928   0.319E-01    0.324E-01
DAV:  10    -0.155699120923E+04   -0.15505E-02   -0.27600E-02 17200   0.250E-01    0.279E-01
DAV:  11    -0.155698812080E+04    0.30884E-02   -0.11782E-02 17408   0.158E-01    0.118E-01
DAV:  12    -0.155698806665E+04    0.54151E-04   -0.48053E-03 18072   0.795E-02    0.566E-02
DAV:  13    -0.155698826018E+04   -0.19354E-03   -0.93273E-04 16816   0.389E-02    0.374E-02
DAV:  14    -0.155698829372E+04   -0.33533E-04   -0.36315E-04 16976   0.286E-02    0.227E-02
DAV:  15    -0.155698828979E+04    0.39235E-05   -0.12433E-04 14760   0.165E-02    0.121E-02
DAV:  16    -0.155698829129E+04   -0.14965E-05   -0.34084E-05  7936   0.938E-03
   2 F= -.15569883E+04 E0= -.15569956E+04  d E =0.231214E+02
       N       E                     dE             d eps       ncg     rms          rms(c)
DAV:   1    -0.159911631345E+04   -0.42128E+02   -0.72130E+02 11620   0.448E+01    0.150E+01
DAV:   2    -0.159023801355E+04    0.88783E+01   -0.28456E+01 17168   0.898E+00    0.779E+00
DAV:   3    -0.158836297867E+04    0.18750E+01   -0.18178E+01 18160   0.685E+00    0.627E+00
DAV:   4    -0.158645586865E+04    0.19071E+01   -0.80426E+00 17464   0.446E+00    0.327E+00
DAV:   5    -0.158598846114E+04    0.46741E+00   -0.37208E+00 16504   0.301E+00    0.138E+00
DAV:   6    -0.158592004821E+04    0.68413E-01   -0.96744E-01 16352   0.167E+00    0.802E-01
DAV:   7    -0.158591201311E+04    0.80351E-02   -0.19818E-01 15176   0.679E-01    0.531E-01
DAV:   8    -0.158591563023E+04   -0.36171E-02   -0.44564E-02 15536   0.280E-01    0.290E-01
DAV:   9    -0.158592252107E+04   -0.68908E-02   -0.23847E-02 16528   0.207E-01    0.186E-01
DAV:  10    -0.158592367343E+04   -0.11524E-02   -0.79347E-03 14664   0.155E-01    0.137E-01
DAV:  11    -0.158592310031E+04    0.57311E-03   -0.38125E-03 16432   0.853E-02    0.492E-02
DAV:  12    -0.158592330420E+04   -0.20389E-03   -0.12273E-03 17136   0.452E-02    0.423E-02
DAV:  13    -0.158592345653E+04   -0.15233E-03   -0.24757E-04 14840   0.242E-02    0.261E-02
DAV:  14    -0.158592346473E+04   -0.82030E-05   -0.10788E-04 13736   0.157E-02    0.109E-02
DAV:  15    -0.158592346292E+04    0.18078E-05   -0.39211E-05  8088   0.876E-03
   3 F= -.15859235E+04 E0= -.15859104E+04  d E =-.289352E+02
       N       E                     dE             d eps       ncg     rms          rms(c)
DAV:   1    -0.158609142506E+04   -0.16796E+00   -0.19237E+01 11620   0.574E+00    0.738E-01
DAV:   2    -0.158611794319E+04   -0.26518E-01   -0.32954E-01 16712   0.934E-01    0.718E-01
DAV:   3    -0.158608869416E+04    0.29249E-01   -0.12109E-01 17736   0.581E-01    0.383E-01
DAV:   4    -0.158608566494E+04    0.30292E-02   -0.23247E-02 16696   0.228E-01    0.252E-01
DAV:   5    -0.158608412968E+04    0.15353E-02   -0.12220E-02 16400   0.187E-01    0.138E-01
DAV:   6    -0.158608346204E+04    0.66763E-03   -0.55535E-03 15848   0.122E-01    0.652E-02
DAV:   7    -0.158608336186E+04    0.10019E-03   -0.13630E-03 15312   0.575E-02    0.379E-02
DAV:   8    -0.158608333955E+04    0.22307E-04   -0.31155E-04 16192   0.278E-02    0.254E-02
DAV:   9    -0.158608332536E+04    0.14193E-04   -0.11027E-04 14488   0.172E-02    0.163E-02
DAV:  10    -0.158608331941E+04    0.59475E-05   -0.52541E-05 12064   0.109E-02
   4 F= -.15860833E+04 E0= -.15860706E+04  d E =-.159856E+00
       N       E                     dE             d eps       ncg     rms          rms(c)
DAV:   1    -0.158612728023E+04   -0.43955E-01   -0.50649E+00 11620   0.294E+00    0.429E-01
DAV:   2    -0.158614355646E+04   -0.16276E-01   -0.13142E-01 17408   0.670E-01    0.534E-01
DAV:   3    -0.158612216352E+04    0.21393E-01   -0.66134E-02 17288   0.437E-01    0.202E-01
DAV:   4    -0.158612128392E+04    0.87960E-03   -0.82688E-03 16816   0.133E-01    0.146E-01
DAV:   5    -0.158612067743E+04    0.60649E-03   -0.36803E-03 16520   0.104E-01    0.880E-02
DAV:   6    -0.158612035617E+04    0.32126E-03   -0.21519E-03 15656   0.736E-02    0.422E-02
DAV:   7    -0.158612030438E+04    0.51783E-04   -0.50441E-04 14560   0.342E-02    0.247E-02
DAV:   8    -0.158612030264E+04    0.17463E-05   -0.10768E-04 14280   0.165E-02    0.167E-02
DAV:   9    -0.158612030260E+04    0.37610E-07   -0.37651E-05  9216   0.106E-02
   5 F= -.15861203E+04 E0= -.15861071E+04  d E =-.369832E-01
       N       E                     dE             d eps       ncg     rms          rms(c)
DAV:   1    -0.158613335741E+04   -0.13055E-01   -0.82818E-01 11662   0.129E+00    0.277E-01
DAV:   2    -0.158613097645E+04    0.23810E-02   -0.12771E-02 15752   0.171E-01    0.156E-01
DAV:   3    -0.158613053758E+04    0.43887E-03   -0.61412E-03 17999   0.128E-01    0.125E-01
DAV:   4    -0.158612981131E+04    0.72627E-03   -0.26429E-03 16200   0.824E-02    0.587E-02
DAV:   5    -0.158612977427E+04    0.37035E-04   -0.11591E-03 15808   0.549E-02    0.314E-02
DAV:   6    -0.158612974957E+04    0.24706E-04   -0.32189E-04 15576   0.312E-02    0.175E-02
DAV:   7    -0.158612974564E+04    0.39309E-05   -0.67716E-05 12392   0.134E-02
   6 F= -.15861297E+04 E0= -.15861169E+04  d E =-.944304E-02
       N       E                     dE             d eps       ncg     rms          rms(c)
DAV:   1    -0.158614299569E+04   -0.13246E-01   -0.80704E-01 11662   0.120E+00    0.222E-01
DAV:   2    -0.158614530323E+04   -0.23075E-02   -0.25247E-02 17712   0.296E-01    0.245E-01
DAV:   3    -0.158614090863E+04    0.43946E-02   -0.14163E-02 17632   0.200E-01    0.985E-02
DAV:   4    -0.158614060278E+04    0.30586E-03   -0.19569E-03 16248   0.659E-02    0.658E-02
DAV:   5    -0.158614042290E+04    0.17988E-03   -0.91584E-04 16744   0.533E-02    0.392E-02
DAV:   6    -0.158614033181E+04    0.91090E-04   -0.45609E-04 16280   0.351E-02    0.183E-02
DAV:   7    -0.158614032048E+04    0.11335E-04   -0.10743E-04 13920   0.157E-02    0.113E-02
DAV:   8    -0.158614032233E+04   -0.18513E-05   -0.18934E-05  7272   0.802E-03
   7 F= -.15861403E+04 E0= -.15861272E+04  d E =-.105767E-01
       N       E                     dE             d eps       ncg     rms          rms(c)
DAV:   1    -0.158614496944E+04   -0.46490E-02   -0.52168E-01 11648   0.936E-01    0.112E-01
DAV:   2    -0.158614638714E+04   -0.14177E-02   -0.92697E-03 16672   0.178E-01    0.146E-01
DAV:   3    -0.158614488143E+04    0.15057E-02   -0.42821E-03 17066   0.114E-01    0.585E-02
DAV:   4    -0.158614486427E+04    0.17158E-04   -0.63908E-04 17056   0.368E-02    0.416E-02
DAV:   5    -0.158614482247E+04    0.41800E-04   -0.31318E-04 15936   0.310E-02    0.179E-02
DAV:   6    -0.158614481908E+04    0.33983E-05   -0.12435E-04 14400   0.170E-02    0.909E-03
DAV:   7    -0.158614481458E+04    0.44986E-05   -0.19311E-05  7328   0.823E-03
   8 F= -.15861448E+04 E0= -.15861317E+04  d E =-.449225E-02
       N       E                     dE             d eps       ncg     rms          rms(c)
DAV:   1    -0.158614689637E+04   -0.20773E-02   -0.16611E-01 11746   0.547E-01    0.102E-01
DAV:   2    -0.158614724554E+04   -0.34917E-03   -0.48500E-03 17840   0.129E-01    0.108E-01
DAV:   3    -0.158614640286E+04    0.84268E-03   -0.27758E-03 17864   0.885E-02    0.453E-02
DAV:   4    -0.158614632053E+04    0.82333E-04   -0.40428E-04 16168   0.299E-02    0.295E-02
DAV:   5    -0.158614627084E+04    0.49685E-04   -0.19061E-04 16568   0.245E-02    0.174E-02
DAV:   6    -0.158614624495E+04    0.25897E-04   -0.86472E-05 14216   0.158E-02    0.781E-03
DAV:   7    -0.158614624231E+04    0.26325E-05   -0.18381E-05  6864   0.747E-03
   9 F= -.15861462E+04 E0= -.15861331E+04  d E =-.142774E-02
       N       E                     dE             d eps       ncg     rms          rms(c)
DAV:   1    -0.158614753363E+04   -0.12887E-02   -0.67228E-02 11760   0.353E-01    0.647E-02
DAV:   2    -0.158614750807E+04    0.25560E-04   -0.94424E-04 15968   0.489E-02    0.432E-02
DAV:   3    -0.158614745721E+04    0.50857E-04   -0.42766E-04 17961   0.346E-02    0.306E-02
DAV:   4    -0.158614744189E+04    0.15323E-04   -0.13954E-04 15264   0.182E-02    0.150E-02
DAV:   5    -0.158614745118E+04   -0.92897E-05   -0.56972E-05 11360   0.136E-02
  10 F= -.15861475E+04 E0= -.15861343E+04  d E =-.120887E-02
       N       E                     dE             d eps       ncg     rms          rms(c)
DAV:   1    -0.158614836397E+04   -0.92208E-03   -0.85778E-02 11760   0.380E-01    0.484E-02
DAV:   2    -0.158614856847E+04   -0.20450E-03   -0.16358E-03 17416   0.726E-02    0.603E-02
DAV:   3    -0.158614831193E+04    0.25654E-03   -0.78564E-04 17376   0.476E-02    0.251E-02
DAV:   4    -0.158614829642E+04    0.15515E-04   -0.96740E-05 14024   0.151E-02    0.176E-02
DAV:   5    -0.158614828124E+04    0.15175E-04   -0.45166E-05 10192   0.133E-02    0.890E-03
DAV:   6    -0.158614827481E+04    0.64355E-05   -0.17850E-05  7384   0.878E-03
  11 F= -.15861483E+04 E0= -.15861351E+04  d E =-.823627E-03
       N       E                     dE             d eps       ncg     rms          rms(c)
DAV:   1    -0.158614878598E+04   -0.50474E-03   -0.68523E-02 11690   0.341E-01    0.388E-02
DAV:   2    -0.158614887936E+04   -0.93373E-04   -0.82111E-04 16800   0.466E-02    0.381E-02
DAV:   3    -0.158614880831E+04    0.71047E-04   -0.29699E-04 17718   0.294E-02    0.218E-02
DAV:   4    -0.158614881036E+04   -0.20508E-05   -0.57159E-05 11800   0.118E-02    0.115E-02
DAV:   5    -0.158614881221E+04   -0.18529E-05   -0.21389E-05  8208   0.103E-02
  12 F= -.15861488E+04 E0= -.15861357E+04  d E =-.537406E-03
       N       E                     dE             d eps       ncg     rms          rms(c)
DAV:   1    -0.158614902746E+04   -0.21710E-03   -0.58055E-03 11788   0.111E-01    0.291E-02
DAV:   2    -0.158614898225E+04    0.45207E-04   -0.17337E-04 16880   0.221E-02    0.193E-02
DAV:   3    -0.158614895904E+04    0.23210E-04   -0.93231E-05 13920   0.168E-02    0.123E-02
DAV:   4    -0.158614894201E+04    0.17024E-04   -0.22956E-05  7816   0.890E-03    0.646E-03
DAV:   5    -0.158614893272E+04    0.92930E-05   -0.10389E-05  6368   0.657E-03
  13 F= -.15861489E+04 E0= -.15861358E+04  d E =-.120509E-03
       N       E                     dE             d eps       ncg     rms          rms(c)
DAV:   1    -0.158614920387E+04   -0.26185E-03   -0.27356E-02 11774   0.215E-01    0.225E-02
DAV:   2    -0.158614923882E+04   -0.34956E-04   -0.29933E-04 17344   0.266E-02    0.219E-02
DAV:   3    -0.158614921742E+04    0.21406E-04   -0.78322E-05 13064   0.164E-02    0.135E-02
DAV:   4    -0.158614921980E+04   -0.23863E-05   -0.21781E-05  7232   0.775E-03    0.589E-03
DAV:   5    -0.158614922144E+04   -0.16321E-05   -0.84971E-06  6712   0.663E-03
  14 F= -.15861492E+04 E0= -.15861361E+04  d E =-.288714E-03
       N       E                     dE             d eps       ncg     rms          rms(c)
DAV:   1    -0.158614946783E+04   -0.24802E-03   -0.32222E-02 11732   0.233E-01    0.244E-02
DAV:   2    -0.158614949578E+04   -0.27958E-04   -0.37868E-04 17696   0.303E-02    0.247E-02
DAV:   3    -0.158614946323E+04    0.32553E-04   -0.11966E-04 15643   0.194E-02    0.143E-02
DAV:   4    -0.158614945533E+04    0.79013E-05   -0.20348E-05  7408   0.749E-03    0.829E-03
DAV:   5    -0.158614945047E+04    0.48610E-05   -0.10675E-05  6920   0.717E-03
  15 F= -.15861495E+04 E0= -.15861363E+04  d E =-.229032E-03
       N       E                     dE             d eps       ncg     rms          rms(c)
DAV:   1    -0.158614949635E+04   -0.41019E-04   -0.21863E-03 11788   0.664E-02    0.148E-02
DAV:   2    -0.158614950164E+04   -0.52951E-05   -0.26763E-05  7296   0.908E-03    0.791E-03
DAV:   3    -0.158614950478E+04   -0.31364E-05   -0.11790E-05  6864   0.774E-03    0.608E-03
DAV:   4    -0.158614950881E+04   -0.40274E-05   -0.59582E-06  6128   0.522E-03    0.269E-03
DAV:   5    -0.158614951186E+04   -0.30538E-05   -0.31497E-06  6104   0.329E-03
  16 F= -.15861495E+04 E0= -.15861364E+04  d E =-.613928E-04
       N       E                     dE             d eps       ncg     rms          rms(c)
DAV:   1    -0.158614965103E+04   -0.14222E-03   -0.11421E-02 11774   0.139E-01    0.159E-02
DAV:   2    -0.158614965066E+04    0.36940E-06   -0.12284E-04 15912   0.160E-02    0.132E-02
DAV:   3    -0.158614964244E+04    0.82204E-05   -0.24959E-05  8480   0.101E-02    0.904E-03
DAV:   4    -0.158614963745E+04    0.49920E-05   -0.11381E-05  6200   0.579E-03    0.505E-03
DAV:   5    -0.158614963419E+04    0.32531E-05   -0.57098E-06  6120   0.503E-03
  17 F= -.15861496E+04 E0= -.15861365E+04  d E =-.122332E-03
       N       E                     dE             d eps       ncg     rms          rms(c)
DAV:   1    -0.158614974252E+04   -0.10507E-03   -0.12294E-02 11774   0.143E-01    0.136E-02
DAV:   2    -0.158614975325E+04   -0.10733E-04   -0.10788E-04 15384   0.143E-02    0.114E-02
DAV:   3    -0.158614975092E+04    0.23260E-05   -0.13643E-05  7424   0.746E-03    0.865E-03
DAV:   4    -0.158614975229E+04   -0.13632E-05   -0.10376E-05  6104   0.501E-03    0.243E-03
DAV:   5    -0.158614975292E+04   -0.63207E-06   -0.33652E-06  6104   0.388E-03
  18 F= -.15861498E+04 E0= -.15861366E+04  d E =-.118727E-03
       N       E                     dE             d eps       ncg     rms          rms(c)
DAV:   1    -0.158614985701E+04   -0.10473E-03   -0.12313E-02 11774   0.144E-01    0.162E-02
DAV:   2    -0.158614985401E+04    0.30048E-05   -0.12548E-04 16096   0.159E-02    0.127E-02
DAV:   3    -0.158614984690E+04    0.71135E-05   -0.22011E-05  8264   0.973E-03    0.903E-03
DAV:   4    -0.158614984093E+04    0.59677E-05   -0.10834E-05  6296   0.578E-03    0.486E-03
DAV:   5    -0.158614983727E+04    0.36587E-05   -0.55245E-06  6152   0.483E-03
  19 F= -.15861498E+04 E0= -.15861367E+04  d E =-.843489E-04
       N       E                     dE             d eps       ncg     rms          rms(c)
DAV:   1    -0.158614985730E+04   -0.16369E-04   -0.62013E-04 11788   0.361E-02    0.881E-03
DAV:   2    -0.158614986241E+04   -0.51089E-05   -0.90077E-06  6104   0.514E-03    0.478E-03
DAV:   3    -0.158614986459E+04   -0.21899E-05   -0.38959E-06  6104   0.444E-03    0.370E-03
DAV:   4    -0.158614986742E+04   -0.28295E-05   -0.21362E-06  6104   0.305E-03    0.159E-03
DAV:   5    -0.158614986940E+04   -0.19777E-05   -0.11173E-06  6104   0.191E-03
  20 F= -.15861499E+04 E0= -.15861367E+04  d E =-.321334E-04
       N       E                     dE             d eps       ncg     rms          rms(c)
DAV:   1    -0.158614993899E+04   -0.71564E-04   -0.69896E-03 11746   0.108E-01    0.104E-02
DAV:   2    -0.158614994017E+04   -0.11853E-05   -0.54363E-05 11720   0.996E-03    0.806E-03
DAV:   3    -0.158614993918E+04    0.99112E-06   -0.85680E-06  6538   0.534E-03    0.617E-03
DAV:   4    -0.158614993672E+04    0.24620E-05   -0.47821E-06  6104   0.386E-03    0.177E-03
DAV:   5    -0.158614993637E+04    0.34972E-06   -0.18704E-06  6090   0.279E-03
  21 F= -.15861499E+04 E0= -.15861368E+04  d E =-.669685E-04
       N       E                     dE             d eps       ncg     rms          rms(c)
DAV:   1    -0.158615001397E+04   -0.77251E-04   -0.15010E-02 11718   0.159E-01    0.150E-02
DAV:   2    -0.158615002641E+04   -0.12438E-04   -0.13114E-04 16208   0.141E-02    0.114E-02
DAV:   3    -0.158615002679E+04   -0.37722E-06   -0.87238E-06  6906   0.559E-03    0.817E-03
DAV:   4    -0.158615002833E+04   -0.15481E-05   -0.67191E-06  6320   0.534E-03    0.246E-03
DAV:   5    -0.158615002911E+04   -0.77691E-06   -0.24221E-06  6104   0.358E-03
  22 F= -.15861500E+04 E0= -.15861369E+04  d E =-.927408E-04
       N       E                     dE             d eps       ncg     rms          rms(c)
DAV:   1    -0.158615002991E+04   -0.15788E-05   -0.44612E-04 11788   0.303E-02    0.751E-03
DAV:   2    -0.158615002121E+04    0.87033E-05   -0.60496E-06  6083   0.478E-03    0.423E-03
DAV:   3    -0.158615001886E+04    0.23547E-05   -0.27773E-06  6083   0.421E-03    0.315E-03
DAV:   4    -0.158615001530E+04    0.35543E-05   -0.13189E-06  6083   0.247E-03    0.136E-03
DAV:   5    -0.158615001360E+04    0.16966E-05   -0.61860E-07  6083   0.156E-03
  23 F= -.15861500E+04 E0= -.15861368E+04  d E =0.155071E-04
       N       E                     dE             d eps       ncg     rms          rms(c)
DAV:   1    -0.158615006084E+04   -0.45544E-04   -0.55947E-03 11753   0.967E-02    0.875E-03
DAV:   2    -0.158615006322E+04   -0.23754E-05   -0.28552E-05  8176   0.843E-03    0.648E-03
DAV:   3    -0.158615006391E+04   -0.68985E-06   -0.90079E-06  6106   0.468E-03    0.432E-03
DAV:   4    -0.158615006468E+04   -0.76955E-06   -0.55401E-06  6104   0.410E-03    0.102E-03
DAV:   5    -0.158615006482E+04   -0.14274E-06   -0.25330E-06  6104   0.276E-03
  24 F= -.15861501E+04 E0= -.15861369E+04  d E =-.512180E-04
       N       E                     dE             d eps       ncg     rms          rms(c)
DAV:   1    -0.158615014167E+04   -0.76991E-04   -0.20678E-02 11690   0.186E-01    0.176E-02
DAV:   2    -0.158615014824E+04   -0.65682E-05   -0.18855E-04 16688   0.170E-02    0.135E-02
DAV:   3    -0.158615014420E+04    0.40361E-05   -0.11859E-05  7290   0.658E-03    0.989E-03
DAV:   4    -0.158615013880E+04    0.54040E-05   -0.94831E-06  6472   0.625E-03    0.368E-03
DAV:   5    -0.158615013723E+04    0.15681E-05   -0.39324E-06  6104   0.456E-03
  25 F= -.15861501E+04 E0= -.15861370E+04  d E =-.724084E-04
       N       E                     dE             d eps       ncg     rms          rms(c)
DAV:   1    -0.158615009543E+04    0.43368E-04   -0.64140E-03 11704   0.104E-01    0.120E-02
DAV:   2    -0.158615010071E+04   -0.52816E-05   -0.41151E-05  9616   0.960E-03    0.812E-03
DAV:   3    -0.158615010217E+04   -0.14625E-05   -0.99042E-06  6069   0.577E-03    0.603E-03
DAV:   4    -0.158615010438E+04   -0.22087E-05   -0.49806E-06  6083   0.441E-03    0.254E-03
DAV:   5    -0.158615010596E+04   -0.15726E-05   -0.26146E-06  6062   0.308E-03
  26 F= -.15861501E+04 E0= -.15861369E+04  d E =0.312746E-04
       N       E                     dE             d eps       ncg     rms          rms(c)
DAV:   1    -0.158615015001E+04   -0.45625E-04   -0.67284E-03 11704   0.106E-01    0.958E-03
DAV:   2    -0.158615015089E+04   -0.87934E-06   -0.34529E-05  8712   0.906E-03    0.714E-03
DAV:   3    -0.158615015035E+04    0.53679E-06   -0.86648E-06  6090   0.479E-03    0.455E-03
DAV:   4    -0.158615014953E+04    0.82363E-06   -0.52483E-06  6083   0.417E-03    0.124E-03
DAV:   5    -0.158615014963E+04   -0.10137E-06   -0.21983E-06  6062   0.270E-03
  27 F= -.15861501E+04 E0= -.15861370E+04  d E =-.436725E-04
       N       E                     dE             d eps       ncg     rms          rms(c)
DAV:   1    -0.158615023793E+04   -0.88399E-04   -0.71939E-02 11620   0.346E-01    0.314E-02
DAV:   2    -0.158615027448E+04   -0.36551E-04   -0.60337E-04 17088   0.305E-02    0.244E-02
DAV:   3    -0.158615026491E+04    0.95655E-05   -0.45640E-05 10491   0.110E-02    0.150E-02
DAV:   4    -0.158615025705E+04    0.78670E-05   -0.29713E-05  8640   0.109E-02    0.483E-03
DAV:   5    -0.158615025584E+04    0.12092E-05   -0.78586E-06  6554   0.669E-03
  28 F= -.15861503E+04 E0= -.15861371E+04  d E =-.106208E-03
       N       E                     dE             d eps       ncg     rms          rms(c)
DAV:   1    -0.158615028139E+04   -0.24342E-04   -0.23445E-02 11648   0.198E-01    0.172E-02
DAV:   2    -0.158615029557E+04   -0.14179E-04   -0.20285E-04 16688   0.176E-02    0.136E-02
DAV:   3    -0.158615029333E+04    0.22322E-05   -0.10426E-05  7211   0.636E-03    0.993E-03
DAV:   4    -0.158615029072E+04    0.26180E-05   -0.11151E-05  6512   0.628E-03    0.257E-03
DAV:   5    -0.158615029053E+04    0.18526E-06   -0.30944E-06  6136   0.419E-03
  29 F= -.15861503E+04 E0= -.15861371E+04  d E =-.346946E-04
       N       E                     dE             d eps       ncg     rms          rms(c)
DAV:   1    -0.158615029631E+04   -0.55895E-05   -0.38171E-02 11620   0.252E-01    0.225E-02
DAV:   2    -0.158615031728E+04   -0.20977E-04   -0.31884E-04 17040   0.223E-02    0.176E-02
DAV:   3    -0.158615031310E+04    0.41836E-05   -0.17440E-05  7884   0.803E-03    0.122E-02
DAV:   4    -0.158615030894E+04    0.41561E-05   -0.17549E-05  7304   0.828E-03    0.321E-03
DAV:   5    -0.158615030864E+04    0.29797E-06   -0.48594E-06  6274   0.542E-03
  30 F= -.15861503E+04 E0= -.15861371E+04  d E =-.181140E-04
       N       E                     dE             d eps       ncg     rms          rms(c)
DAV:   1    -0.158615030927E+04   -0.32779E-06   -0.60157E-05 11168   0.103E-02    0.158E-03
DAV:   2    -0.158615030876E+04    0.51198E-06   -0.16303E-06  6104   0.242E-03    0.142E-03
DAV:   3    -0.158615030856E+04    0.19877E-06   -0.63644E-07  6104   0.190E-03    0.703E-04
DAV:   4    -0.158615030828E+04    0.28027E-06   -0.35698E-07  6062   0.933E-04    0.432E-04
DAV:   5    -0.158615030815E+04    0.13333E-06   -0.18334E-07  6062   0.848E-04
  31 F= -.15861503E+04 E0= -.15861371E+04  d E =0.498590E-06
