       N       E                     dE             d eps       ncg     rms          rms(c)
DAV:   1     0.193965572229E+04    0.19397E+04   -0.27705E+05 11188   0.142E+03
DAV:   2    -0.118738430106E+04   -0.31270E+04   -0.30068E+04 12918   0.266E+02
DAV:   3    -0.157777185624E+04   -0.39039E+03   -0.35469E+03 17520   0.822E+01
DAV:   4    -0.160279113413E+04   -0.25019E+02   -0.22579E+02 15856   0.161E+01
DAV:   5    -0.160394209542E+04   -0.11510E+01   -0.11218E+01 16784   0.446E+00    0.380E+01
DAV:   6    -0.157495247269E+04    0.28990E+02   -0.13250E+02 18576   0.173E+01    0.244E+01
DAV:   7    -0.155818090183E+04    0.16772E+02   -0.10834E+02 18056   0.168E+01    0.186E+01
DAV:   8    -0.154768283540E+04    0.10498E+02   -0.77956E+01 16336   0.112E+01    0.113E+01
DAV:   9    -0.154123169187E+04    0.64511E+01   -0.28190E+01 16144   0.819E+00    0.344E+00
DAV:  10    -0.154096130113E+04    0.27039E+00   -0.46227E+00 15416   0.324E+00    0.170E+00
DAV:  11    -0.154095479481E+04    0.65063E-02   -0.99807E-01 15944   0.141E+00    0.115E+00
DAV:  12    -0.154093587022E+04    0.18925E-01   -0.23976E-01 13568   0.650E-01    0.645E-01
DAV:  13    -0.154092765499E+04    0.82152E-02   -0.63670E-02 15128   0.412E-01    0.429E-01
DAV:  14    -0.154092089768E+04    0.67573E-02   -0.26998E-02 16320   0.276E-01    0.252E-01
DAV:  15    -0.154091840864E+04    0.24890E-02   -0.12295E-02 15480   0.158E-01    0.876E-02
DAV:  16    -0.154091842314E+04   -0.14504E-04   -0.30400E-03 15408   0.756E-02    0.470E-02
DAV:  17    -0.154091842924E+04   -0.60954E-05   -0.64768E-04 16120   0.407E-02    0.344E-02
DAV:  18    -0.154091839337E+04    0.35871E-04   -0.23750E-04 15432   0.244E-02    0.194E-02
DAV:  19    -0.154091837734E+04    0.16031E-04   -0.79552E-05 12816   0.138E-02    0.842E-03
DAV:  20    -0.154091837356E+04    0.37773E-05   -0.20668E-05  6928   0.736E-03
   1 F= -.15409184E+04 E0= -.15409142E+04  d E =-.154092E+04
       N       E                     dE             d eps       ncg     rms          rms(c)
DAV:   1    -0.154435415237E+04   -0.34358E+01   -0.26580E+03 11172   0.797E+01    0.274E+01
DAV:   2    -0.152342308510E+04    0.20931E+02   -0.17417E+02 19472   0.196E+01    0.212E+01
DAV:   3    -0.151029519804E+04    0.13128E+02   -0.11090E+02 18696   0.149E+01    0.152E+01
DAV:   4    -0.150092716313E+04    0.93680E+01   -0.54982E+01 20320   0.884E+00    0.101E+01
DAV:   5    -0.149716057025E+04    0.37666E+01   -0.34286E+01 17504   0.686E+00    0.422E+00
DAV:   6    -0.149675132058E+04    0.40925E+00   -0.62134E+00 17112   0.334E+00    0.296E+00
DAV:   7    -0.149657853796E+04    0.17278E+00   -0.11644E+00 16584   0.154E+00    0.214E+00
DAV:   8    -0.149650015702E+04    0.78381E-01   -0.43975E-01 18504   0.745E-01    0.116E+00
DAV:   9    -0.149648593059E+04    0.14226E-01   -0.35134E-01 17944   0.567E-01    0.551E-01
DAV:  10    -0.149648298159E+04    0.29490E-02   -0.66867E-02 17768   0.327E-01    0.384E-01
DAV:  11    -0.149647875367E+04    0.42279E-02   -0.22306E-02 18584   0.207E-01    0.229E-01
DAV:  12    -0.149647776309E+04    0.99058E-03   -0.10898E-02 18960   0.120E-01    0.112E-01
DAV:  13    -0.149647842571E+04   -0.66262E-03   -0.31770E-03 16432   0.632E-02    0.767E-02
DAV:  14    -0.149647861481E+04   -0.18910E-03   -0.11339E-03 17064   0.436E-02    0.651E-02
DAV:  15    -0.149647852751E+04    0.87305E-04   -0.45616E-04 17624   0.296E-02    0.428E-02
DAV:  16    -0.149647847836E+04    0.49152E-04   -0.36483E-04 19032   0.218E-02    0.139E-02
DAV:  17    -0.149647848173E+04   -0.33753E-05   -0.65080E-05 11312   0.955E-03
   2 F= -.14964785E+04 E0= -.14964814E+04  d E =0.444399E+02
       N       E                     dE             d eps       ncg     rms          rms(c)
DAV:   1    -0.157398011975E+04   -0.77502E+02   -0.13349E+03 11172   0.626E+01    0.192E+01
DAV:   2    -0.156114608259E+04    0.12834E+02   -0.51360E+01 17600   0.122E+01    0.114E+01
DAV:   3    -0.155729723711E+04    0.38488E+01   -0.37928E+01 18232   0.956E+00    0.911E+00
DAV:   4    -0.155342003031E+04    0.38772E+01   -0.17589E+01 16192   0.565E+00    0.523E+00
DAV:   5    -0.155215232426E+04    0.12677E+01   -0.84214E+00 15640   0.423E+00    0.180E+00
DAV:   6    -0.155207478602E+04    0.77538E-01   -0.15630E+00 15392   0.193E+00    0.106E+00
DAV:   7    -0.155206570741E+04    0.90786E-02   -0.29320E-01 14688   0.843E-01    0.779E-01
DAV:   8    -0.155206721897E+04   -0.15116E-02   -0.74832E-02 15472   0.361E-01    0.433E-01
DAV:   9    -0.155207876212E+04   -0.11543E-01   -0.57982E-02 16224   0.273E-01    0.254E-01
DAV:  10    -0.155207965411E+04   -0.89199E-03   -0.12627E-02 16008   0.187E-01    0.186E-01
DAV:  11    -0.155207866839E+04    0.98572E-03   -0.56620E-03 17304   0.114E-01    0.858E-02
DAV:  12    -0.155207891452E+04   -0.24612E-03   -0.23150E-03 16560   0.585E-02    0.457E-02
DAV:  13    -0.155207916989E+04   -0.25537E-03   -0.60335E-04 15256   0.317E-02    0.236E-02
DAV:  14    -0.155207919637E+04   -0.26486E-04   -0.14835E-04 14320   0.191E-02    0.155E-02
DAV:  15    -0.155207919239E+04    0.39830E-05   -0.39826E-05  8784   0.109E-02
   3 F= -.15520792E+04 E0= -.15521023E+04  d E =-.556007E+02
       N       E                     dE             d eps       ncg     rms          rms(c)
DAV:   1    -0.155252593184E+04   -0.44674E+00   -0.27489E+01 11172   0.745E+00    0.127E+00
DAV:   2    -0.155249867438E+04    0.27257E-01   -0.42654E-01 16248   0.858E-01    0.858E-01
DAV:   3    -0.155248147425E+04    0.17200E-01   -0.15709E-01 18056   0.607E-01    0.660E-01
DAV:   4    -0.155246068195E+04    0.20792E-01   -0.69581E-02 15656   0.387E-01    0.324E-01
DAV:   5    -0.155245675574E+04    0.39262E-02   -0.31793E-02 15328   0.275E-01    0.133E-01
DAV:   6    -0.155245644293E+04    0.31280E-03   -0.66721E-03 15120   0.132E-01    0.906E-02
DAV:   7    -0.155245627451E+04    0.16843E-03   -0.18566E-03 15720   0.689E-02    0.583E-02
DAV:   8    -0.155245624435E+04    0.30161E-04   -0.55668E-04 15168   0.335E-02    0.326E-02
DAV:   9    -0.155245627826E+04   -0.33913E-04   -0.25499E-04 15112   0.214E-02    0.207E-02
DAV:  10    -0.155245628314E+04   -0.48762E-05   -0.74024E-05 12888   0.153E-02
   4 F= -.15524563E+04 E0= -.15524755E+04  d E =-.377091E+00
       N       E                     dE             d eps       ncg     rms          rms(c)
DAV:   1    -0.155252570400E+04   -0.69426E-01   -0.51042E+00 11172   0.305E+00    0.482E-01
DAV:   2    -0.155255061795E+04   -0.24914E-01   -0.16528E-01 18176   0.683E-01    0.676E-01
DAV:   3    -0.155251989522E+04    0.30723E-01   -0.88727E-02 17832   0.478E-01    0.225E-01
DAV:   4    -0.155251839420E+04    0.15010E-02   -0.10552E-02 15840   0.133E-01    0.149E-01
DAV:   5    -0.155251780725E+04    0.58694E-03   -0.44078E-03 16168   0.105E-01    0.951E-02
DAV:   6    -0.155251744063E+04    0.36663E-03   -0.22271E-03 15664   0.765E-02    0.524E-02
DAV:   7    -0.155251732736E+04    0.11326E-03   -0.72729E-04 15600   0.420E-02    0.279E-02
DAV:   8    -0.155251732630E+04    0.10618E-05   -0.16874E-04 14744   0.174E-02    0.165E-02
DAV:   9    -0.155251732906E+04   -0.27571E-05   -0.39978E-05  8832   0.104E-02
   5 F= -.15525173E+04 E0= -.15525374E+04  d E =-.610459E-01
       N       E                     dE             d eps       ncg     rms          rms(c)
DAV:   1    -0.155254486770E+04   -0.27541E-01   -0.29652E+00 11172   0.230E+00    0.273E-01
DAV:   2    -0.155255655992E+04   -0.11692E-01   -0.64624E-02 17272   0.412E-01    0.426E-01
DAV:   3    -0.155254477863E+04    0.11781E-01   -0.31276E-02 17136   0.286E-01    0.142E-01
DAV:   4    -0.155254448737E+04    0.29126E-03   -0.40602E-03 15912   0.830E-02    0.936E-02
DAV:   5    -0.155254434710E+04    0.14027E-03   -0.16874E-03 15624   0.632E-02    0.550E-02
DAV:   6    -0.155254425581E+04    0.91290E-04   -0.78241E-04 15656   0.451E-02    0.269E-02
DAV:   7    -0.155254423279E+04    0.23020E-04   -0.23376E-04 15792   0.234E-02    0.143E-02
DAV:   8    -0.155254422331E+04    0.94766E-05   -0.38773E-05  8120   0.101E-02
   6 F= -.15525442E+04 E0= -.15525637E+04  d E =-.268943E-01
       N       E                     dE             d eps       ncg     rms          rms(c)
DAV:   1    -0.155255607866E+04   -0.11846E-01   -0.69907E-01 11228   0.117E+00    0.234E-01
DAV:   2    -0.155255987774E+04   -0.37991E-02   -0.28417E-02 18248   0.297E-01    0.303E-01
DAV:   3    -0.155255374512E+04    0.61326E-02   -0.17926E-02 17920   0.214E-01    0.105E-01
DAV:   4    -0.155255330264E+04    0.44247E-03   -0.23947E-03 15640   0.634E-02    0.655E-02
DAV:   5    -0.155255312199E+04    0.18065E-03   -0.10412E-03 16440   0.524E-02    0.412E-02
DAV:   6    -0.155255301688E+04    0.10511E-03   -0.46301E-04 15960   0.351E-02    0.206E-02
DAV:   7    -0.155255299829E+04    0.18590E-04   -0.12655E-04 13784   0.173E-02    0.120E-02
DAV:   8    -0.155255299999E+04   -0.17018E-05   -0.26154E-05  6888   0.821E-03
   7 F= -.15525530E+04 E0= -.15525729E+04  d E =-.877668E-02
       N       E                     dE             d eps       ncg     rms          rms(c)
DAV:   1    -0.155256110740E+04   -0.81091E-02   -0.55378E-01 11200   0.101E+00    0.137E-01
DAV:   2    -0.155256291849E+04   -0.18111E-02   -0.10957E-02 16824   0.170E-01    0.184E-01
DAV:   3    -0.155256083979E+04    0.20787E-02   -0.56548E-03 16800   0.122E-01    0.701E-02
DAV:   4    -0.155256076079E+04    0.78993E-04   -0.96626E-04 14912   0.423E-02    0.380E-02
DAV:   5    -0.155256075840E+04    0.23959E-05   -0.37007E-04 16016   0.310E-02    0.235E-02
DAV:   6    -0.155256074203E+04    0.16368E-04   -0.15000E-04 15224   0.201E-02    0.105E-02
DAV:   7    -0.155256073945E+04    0.25773E-05   -0.28403E-05  7192   0.928E-03
   8 F= -.15525607E+04 E0= -.15525803E+04  d E =-.773946E-02
       N       E                     dE             d eps       ncg     rms          rms(c)
DAV:   1    -0.155256536979E+04   -0.46278E-02   -0.40182E-01 11214   0.843E-01    0.119E-01
DAV:   2    -0.155256820220E+04   -0.28324E-02   -0.13149E-02 17832   0.202E-01    0.214E-01
DAV:   3    -0.155256500152E+04    0.32007E-02   -0.79387E-03 17496   0.144E-01    0.549E-02
DAV:   4    -0.155256493187E+04    0.69650E-04   -0.70838E-04 16032   0.341E-02    0.380E-02
DAV:   5    -0.155256488917E+04    0.42702E-04   -0.26126E-04 16672   0.259E-02    0.251E-02
DAV:   6    -0.155256485403E+04    0.35135E-04   -0.15089E-04 15320   0.196E-02    0.123E-02
DAV:   7    -0.155256484712E+04    0.69098E-05   -0.33907E-05  7840   0.102E-02
   9 F= -.15525648E+04 E0= -.15525845E+04  d E =-.410767E-02
       N       E                     dE             d eps       ncg     rms          rms(c)
DAV:   1    -0.155256687152E+04   -0.20175E-02   -0.18427E-01 11242   0.577E-01    0.762E-02
DAV:   2    -0.155256760764E+04   -0.73612E-03   -0.37551E-03 16704   0.102E-01    0.112E-01
DAV:   3    -0.155256681604E+04    0.79160E-03   -0.20332E-03 16720   0.736E-02    0.389E-02
DAV:   4    -0.155256681036E+04    0.56809E-05   -0.31085E-04 14904   0.240E-02    0.209E-02
DAV:   5    -0.155256681695E+04   -0.65888E-05   -0.10268E-04 14128   0.173E-02    0.131E-02
DAV:   6    -0.155256681379E+04    0.31583E-05   -0.38946E-05  8968   0.116E-02
  10 F= -.15525668E+04 E0= -.15525863E+04  d E =-.196667E-02
       N       E                     dE             d eps       ncg     rms          rms(c)
DAV:   1    -0.155256816756E+04   -0.13506E-02   -0.63403E-02 11340   0.347E-01    0.646E-02
DAV:   2    -0.155256852872E+04   -0.36116E-03   -0.24029E-03 18168   0.872E-02    0.915E-02
DAV:   3    -0.155256795882E+04    0.56990E-03   -0.15544E-03 17832   0.628E-02    0.294E-02
DAV:   4    -0.155256791391E+04    0.44915E-04   -0.18689E-04 15672   0.177E-02    0.184E-02
DAV:   5    -0.155256788757E+04    0.26334E-04   -0.71157E-05 12864   0.146E-02    0.111E-02
DAV:   6    -0.155256787389E+04    0.13685E-04   -0.26532E-05  7584   0.104E-02    0.495E-03
DAV:   7    -0.155256787249E+04    0.14034E-05   -0.88135E-06  6216   0.569E-03
  11 F= -.15525679E+04 E0= -.15525874E+04  d E =-.105870E-02
       N       E                     dE             d eps       ncg     rms          rms(c)
DAV:   1    -0.155256884612E+04   -0.97223E-03   -0.87740E-02 11242   0.392E-01    0.455E-02
DAV:   2    -0.155256931053E+04   -0.46441E-03   -0.19854E-03 17160   0.756E-02    0.833E-02
DAV:   3    -0.155256884439E+04    0.46615E-03   -0.11159E-03 16888   0.542E-02    0.236E-02
DAV:   4    -0.155256884729E+04   -0.28978E-05   -0.11748E-04 13904   0.149E-02    0.132E-02
DAV:   5    -0.155256884837E+04   -0.10886E-05   -0.30115E-05  8392   0.107E-02
  12 F= -.15525688E+04 E0= -.15525883E+04  d E =-.975887E-03
       N       E                     dE             d eps       ncg     rms          rms(c)
DAV:   1    -0.155256948985E+04   -0.64257E-03   -0.57115E-02 11298   0.318E-01    0.427E-02
DAV:   2    -0.155256979468E+04   -0.30483E-03   -0.15622E-03 17992   0.680E-02    0.730E-02
DAV:   3    -0.155256942873E+04    0.36596E-03   -0.92424E-04 17664   0.485E-02    0.208E-02
DAV:   4    -0.155256941018E+04    0.18548E-04   -0.82386E-05 12808   0.122E-02    0.130E-02
DAV:   5    -0.155256939938E+04    0.10800E-04   -0.24628E-05  7624   0.102E-02    0.803E-03
DAV:   6    -0.155256939210E+04    0.72835E-05   -0.10314E-05  6584   0.706E-03
  13 F= -.15525694E+04 E0= -.15525889E+04  d E =-.543722E-03
       N       E                     dE             d eps       ncg     rms          rms(c)
DAV:   1    -0.155256967304E+04   -0.27367E-03   -0.16864E-02 11340   0.177E-01    0.261E-02
DAV:   2    -0.155256971088E+04   -0.37836E-04   -0.25244E-04 16904   0.240E-02    0.260E-02
DAV:   3    -0.155256968017E+04    0.30713E-04   -0.11183E-04 14464   0.172E-02    0.134E-02
DAV:   4    -0.155256968602E+04   -0.58530E-05   -0.23975E-05  6704   0.814E-03    0.640E-03
DAV:   5    -0.155256969310E+04   -0.70817E-05   -0.96017E-06  6216   0.622E-03
  14 F= -.15525697E+04 E0= -.15525892E+04  d E =-.301007E-03
       N       E                     dE             d eps       ncg     rms          rms(c)
DAV:   1    -0.155257001033E+04   -0.32431E-03   -0.22855E-02 11298   0.201E-01    0.256E-02
DAV:   2    -0.155257010491E+04   -0.94581E-04   -0.53390E-04 18128   0.391E-02    0.417E-02
DAV:   3    -0.155256998696E+04    0.11795E-03   -0.30094E-04 17624   0.276E-02    0.132E-02
DAV:   4    -0.155256997687E+04    0.10092E-04   -0.22380E-05  7344   0.744E-03    0.770E-03
DAV:   5    -0.155256997144E+04    0.54248E-05   -0.10615E-05  6424   0.650E-03
  15 F= -.15525700E+04 E0= -.15525895E+04  d E =-.278339E-03
       N       E                     dE             d eps       ncg     rms          rms(c)
DAV:   1    -0.155257020691E+04   -0.23004E-03   -0.25295E-02 11284   0.210E-01    0.214E-02
DAV:   2    -0.155257027990E+04   -0.72990E-04   -0.38111E-04 17808   0.303E-02    0.321E-02
DAV:   3    -0.155257021869E+04    0.61207E-04   -0.16622E-04 16281   0.208E-02    0.126E-02
DAV:   4    -0.155257022107E+04   -0.23774E-05   -0.20114E-05  6816   0.733E-03    0.561E-03
DAV:   5    -0.155257022319E+04   -0.21226E-05   -0.78706E-06  6248   0.590E-03
  16 F= -.15525702E+04 E0= -.15525897E+04  d E =-.251750E-03
       N       E                     dE             d eps       ncg     rms          rms(c)
DAV:   1    -0.155257036465E+04   -0.14359E-03   -0.90457E-03 11326   0.128E-01    0.182E-02
DAV:   2    -0.155257037494E+04   -0.10282E-04   -0.17663E-04 16576   0.221E-02    0.222E-02
DAV:   3    -0.155257034219E+04    0.32749E-04   -0.89060E-05 13064   0.158E-02    0.901E-03
DAV:   4    -0.155257033434E+04    0.78521E-05   -0.13733E-05  6312   0.615E-03    0.534E-03
DAV:   5    -0.155257032879E+04    0.55414E-05   -0.64583E-06  6120   0.492E-03
  17 F= -.15525703E+04 E0= -.15525898E+04  d E =-.105603E-03
       N       E                     dE             d eps       ncg     rms          rms(c)
DAV:   1    -0.155257043001E+04   -0.95676E-04   -0.66051E-03 11326   0.109E-01    0.129E-02
DAV:   2    -0.155257044458E+04   -0.14565E-04   -0.70396E-05 12824   0.127E-02    0.126E-02
DAV:   3    -0.155257043816E+04    0.64133E-05   -0.20494E-05  7560   0.877E-03    0.725E-03
DAV:   4    -0.155257044302E+04   -0.48513E-05   -0.10357E-05  6000   0.480E-03    0.359E-03
DAV:   5    -0.155257044606E+04   -0.30475E-05   -0.45791E-06  5968   0.421E-03
  18 F= -.15525704E+04 E0= -.15525899E+04  d E =-.117268E-03
       N       E                     dE             d eps       ncg     rms          rms(c)
DAV:   1    -0.155257056791E+04   -0.12490E-03   -0.11159E-02 11284   0.139E-01    0.142E-02
DAV:   2    -0.155257059019E+04   -0.22282E-04   -0.15516E-04 16688   0.198E-02    0.201E-02
DAV:   3    -0.155257056485E+04    0.25346E-04   -0.62284E-05 11089   0.138E-02    0.837E-03
DAV:   4    -0.155257056145E+04    0.33990E-05   -0.12832E-05  6240   0.580E-03    0.422E-03
DAV:   5    -0.155257055985E+04    0.15991E-05   -0.53081E-06  6096   0.480E-03
  19 F= -.15525706E+04 E0= -.15525900E+04  d E =-.113786E-03
       N       E                     dE             d eps       ncg     rms          rms(c)
DAV:   1    -0.155257064923E+04   -0.87780E-04   -0.99297E-03 11284   0.132E-01    0.128E-02
DAV:   2    -0.155257066542E+04   -0.16194E-04   -0.95989E-05 14032   0.141E-02    0.132E-02
DAV:   3    -0.155257065840E+04    0.70238E-05   -0.22547E-05  7624   0.905E-03    0.780E-03
DAV:   4    -0.155257066255E+04   -0.41498E-05   -0.11841E-05  5968   0.505E-03    0.325E-03
DAV:   5    -0.155257066474E+04   -0.21968E-05   -0.47951E-06  5936   0.445E-03
  20 F= -.15525707E+04 E0= -.15525901E+04  d E =-.104896E-03
       N       E                     dE             d eps       ncg     rms          rms(c)
DAV:   1    -0.155257071223E+04   -0.49685E-04   -0.16103E-03 11326   0.549E-02    0.901E-03
DAV:   2    -0.155257070648E+04    0.57547E-05   -0.19442E-05  7560   0.958E-03    0.847E-03
DAV:   3    -0.155257070111E+04    0.53639E-05   -0.99024E-06  6832   0.790E-03    0.414E-03
DAV:   4    -0.155257069679E+04    0.43266E-05   -0.39713E-06  5880   0.326E-03    0.214E-03
DAV:   5    -0.155257069477E+04    0.20197E-05   -0.21085E-06  5880   0.277E-03
  21 F= -.15525707E+04 E0= -.15525902E+04  d E =-.300234E-04
       N       E                     dE             d eps       ncg     rms          rms(c)
DAV:   1    -0.155257075625E+04   -0.59463E-04   -0.56664E-03 11312   0.992E-02    0.936E-03
DAV:   2    -0.155257076330E+04   -0.70479E-05   -0.49748E-05 10672   0.987E-03    0.880E-03
DAV:   3    -0.155257076143E+04    0.18723E-05   -0.11633E-05  6464   0.620E-03    0.597E-03
DAV:   4    -0.155257076348E+04   -0.20526E-05   -0.63978E-06  5880   0.372E-03    0.219E-03
DAV:   5    -0.155257076432E+04   -0.84428E-06   -0.26237E-06  5880   0.309E-03
  22 F= -.15525708E+04 E0= -.15525902E+04  d E =-.695554E-04
       N       E                     dE             d eps       ncg     rms          rms(c)
DAV:   1    -0.155257082917E+04   -0.65695E-04   -0.65993E-03 11270   0.107E-01    0.100E-02
DAV:   2    -0.155257083239E+04   -0.32177E-05   -0.64586E-05 11792   0.118E-02    0.105E-02
DAV:   3    -0.155257082697E+04    0.54228E-05   -0.16528E-05  6978   0.781E-03    0.623E-03
DAV:   4    -0.155257082408E+04    0.28902E-05   -0.74570E-06  5880   0.390E-03    0.296E-03
DAV:   5    -0.155257082275E+04    0.13248E-05   -0.33985E-06  5880   0.354E-03
  23 F= -.15525708E+04 E0= -.15525903E+04  d E =-.584304E-04
       N       E                     dE             d eps       ncg     rms          rms(c)
DAV:   1    -0.155257084248E+04   -0.18399E-04   -0.10119E-03 11326   0.429E-02    0.551E-03
DAV:   2    -0.155257084679E+04   -0.43151E-05   -0.78598E-06  5859   0.458E-03    0.392E-03
DAV:   3    -0.155257084755E+04   -0.75647E-06   -0.34213E-06  5859   0.334E-03    0.282E-03
DAV:   4    -0.155257085003E+04   -0.24801E-05   -0.18846E-06  5859   0.232E-03    0.137E-03
DAV:   5    -0.155257085149E+04   -0.14636E-05   -0.10963E-06  5859   0.174E-03
  24 F= -.15525709E+04 E0= -.15525903E+04  d E =-.287396E-04
       N       E                     dE             d eps       ncg     rms          rms(c)
DAV:   1    -0.155257089429E+04   -0.44256E-04   -0.33393E-03 11298   0.762E-02    0.742E-03
DAV:   2    -0.155257089258E+04    0.17079E-05   -0.20779E-05  7648   0.753E-03    0.599E-03
DAV:   3    -0.155257089163E+04    0.94478E-06   -0.80594E-06  6105   0.522E-03    0.439E-03
DAV:   4    -0.155257088924E+04    0.23898E-05   -0.46700E-06  5859   0.337E-03    0.187E-03
DAV:   5    -0.155257088855E+04    0.69404E-06   -0.25174E-06  5852   0.282E-03
  25 F= -.15525709E+04 E0= -.15525904E+04  d E =-.370563E-04
       N       E                     dE             d eps       ncg     rms          rms(c)
DAV:   1    -0.155257092268E+04   -0.33442E-04   -0.35189E-03 11270   0.781E-02    0.722E-03
DAV:   2    -0.155257092668E+04   -0.39911E-05   -0.22990E-05  7576   0.710E-03    0.548E-03
DAV:   3    -0.155257092763E+04   -0.95845E-06   -0.81805E-06  5954   0.447E-03    0.424E-03
DAV:   4    -0.155257093005E+04   -0.24191E-05   -0.51693E-06  5859   0.353E-03    0.131E-03
DAV:   5    -0.155257093081E+04   -0.75757E-06   -0.26688E-06  5859   0.274E-03
  26 F= -.15525709E+04 E0= -.15525904E+04  d E =-.422618E-04
       N       E                     dE             d eps       ncg     rms          rms(c)
DAV:   1    -0.155257095112E+04   -0.21066E-04   -0.77403E-04 11326   0.372E-02    0.501E-03
DAV:   2    -0.155257094723E+04    0.38938E-05   -0.74470E-06  5838   0.463E-03    0.340E-03
DAV:   3    -0.155257094636E+04    0.86607E-06   -0.34208E-06  5838   0.382E-03    0.257E-03
DAV:   4    -0.155257094431E+04    0.20497E-05   -0.18133E-06  5838   0.232E-03    0.132E-03
DAV:   5    -0.155257094315E+04    0.11562E-05   -0.10930E-06  5838   0.188E-03
  27 F= -.15525709E+04 E0= -.15525904E+04  d E =-.123423E-04
       N       E                     dE             d eps       ncg     rms          rms(c)
DAV:   1    -0.155257096654E+04   -0.22230E-04   -0.18981E-03 11298   0.573E-02    0.525E-03
DAV:   2    -0.155257096843E+04   -0.18861E-05   -0.11479E-05  6486   0.514E-03    0.402E-03
DAV:   3    -0.155257096891E+04   -0.48300E-06   -0.43829E-06  5847   0.325E-03    0.312E-03
DAV:   4    -0.155257097022E+04   -0.13123E-05   -0.29623E-06  5838   0.264E-03    0.831E-04
DAV:   5    -0.155257097048E+04   -0.25713E-06   -0.14557E-06  5838   0.200E-03
  28 F= -.15525710E+04 E0= -.15525905E+04  d E =-.273246E-04
       N       E                     dE             d eps       ncg     rms          rms(c)
DAV:   1    -0.155257101019E+04   -0.39964E-04   -0.59046E-03 11270   0.101E-01    0.897E-03
DAV:   2    -0.155257101106E+04   -0.87719E-06   -0.50868E-05 11080   0.913E-03    0.724E-03
DAV:   3    -0.155257101022E+04    0.83770E-06   -0.80793E-06  6113   0.508E-03    0.573E-03
DAV:   4    -0.155257100763E+04    0.25944E-05   -0.43472E-06  5880   0.333E-03    0.204E-03
DAV:   5    -0.155257100691E+04    0.72172E-06   -0.19625E-06  5880   0.258E-03
  29 F= -.15525710E+04 E0= -.15525905E+04  d E =-.364307E-04
       N       E                     dE             d eps       ncg     rms          rms(c)
DAV:   1    -0.155257099841E+04    0.92252E-05   -0.25769E-04 11224   0.226E-02    0.416E-03
DAV:   2    -0.155257100165E+04   -0.32418E-05   -0.24358E-06  5817   0.298E-03    0.269E-03
DAV:   3    -0.155257100220E+04   -0.54878E-06   -0.93669E-07  5810   0.244E-03    0.203E-03
DAV:   4    -0.155257100388E+04   -0.16879E-05   -0.48338E-07  5817   0.132E-03    0.954E-04
DAV:   5    -0.155257100506E+04   -0.11788E-05   -0.24752E-07  5817   0.880E-04
  30 F= -.15525710E+04 E0= -.15525905E+04  d E =0.184615E-05
       N       E                     dE             d eps       ncg     rms          rms(c)
DAV:   1    -0.155257103130E+04   -0.27415E-04   -0.27967E-03 11291   0.696E-02    0.591E-03
DAV:   2    -0.155257103131E+04   -0.11995E-07   -0.14159E-05  5966   0.590E-03    0.459E-03
DAV:   3    -0.155257103122E+04    0.86735E-07   -0.47786E-06  5824   0.344E-03    0.361E-03
DAV:   4    -0.155257103031E+04    0.90944E-06   -0.32093E-06  5838   0.272E-03    0.993E-04
DAV:   5    -0.155257103033E+04   -0.15462E-07   -0.14711E-06  5838   0.198E-03
  31 F= -.15525710E+04 E0= -.15525905E+04  d E =-.252675E-04
       N       E                     dE             d eps       ncg     rms          rms(c)
DAV:   1    -0.155257108697E+04   -0.56654E-04   -0.31553E-02 11200   0.234E-01    0.197E-02
DAV:   2    -0.155257110682E+04   -0.19847E-04   -0.27486E-04 16592   0.195E-02    0.157E-02
DAV:   3    -0.155257110489E+04    0.19247E-05   -0.13150E-05  7107   0.710E-03    0.125E-02
DAV:   4    -0.155257110182E+04    0.30730E-05   -0.15679E-05  6392   0.695E-03    0.289E-03
DAV:   5    -0.155257110185E+04   -0.31469E-07   -0.39752E-06  5984   0.427E-03
  32 F= -.15525711E+04 E0= -.15525906E+04  d E =-.715196E-04
       N       E                     dE             d eps       ncg     rms          rms(c)
DAV:   1    -0.155257107036E+04    0.31462E-04   -0.10442E-02 11214   0.135E-01    0.130E-02
DAV:   2    -0.155257106739E+04    0.29707E-05   -0.76167E-05 13296   0.111E-02    0.970E-03
DAV:   3    -0.155257106473E+04    0.26534E-05   -0.86799E-06  5852   0.543E-03    0.763E-03
DAV:   4    -0.155257105859E+04    0.61398E-05   -0.61582E-06  5859   0.453E-03    0.256E-03
DAV:   5    -0.155257105703E+04    0.15643E-05   -0.23803E-06  5817   0.319E-03
  33 F= -.15525711E+04 E0= -.15525905E+04  d E =0.448214E-04
       N       E                     dE             d eps       ncg     rms          rms(c)
DAV:   1    -0.155257108996E+04   -0.31373E-04   -0.83603E-03 11256   0.120E-01    0.106E-02
DAV:   2    -0.155257109474E+04   -0.47705E-05   -0.56078E-05 11384   0.995E-03    0.843E-03
DAV:   3    -0.155257109456E+04    0.17194E-06   -0.78097E-06  5866   0.506E-03    0.671E-03
DAV:   4    -0.155257109542E+04   -0.85706E-06   -0.62959E-06  5859   0.399E-03    0.171E-03
DAV:   5    -0.155257109557E+04   -0.15102E-06   -0.17581E-06  5859   0.260E-03
  34 F= -.15525711E+04 E0= -.15525906E+04  d E =-.385435E-04
       N       E                     dE             d eps       ncg     rms          rms(c)
DAV:   1    -0.155257111763E+04   -0.22214E-04   -0.70904E-03 11242   0.111E-01    0.923E-03
DAV:   2    -0.155257112068E+04   -0.30503E-05   -0.58748E-05 11704   0.946E-03    0.752E-03
DAV:   3    -0.155257112019E+04    0.49654E-06   -0.73236E-06  5962   0.475E-03    0.600E-03
DAV:   4    -0.155257111831E+04    0.18795E-05   -0.45478E-06  5859   0.337E-03    0.140E-03
DAV:   5    -0.155257111824E+04    0.73380E-07   -0.15839E-06  5831   0.233E-03
  35 F= -.15525711E+04 E0= -.15525906E+04  d E =-.226640E-04
       N       E                     dE             d eps       ncg     rms          rms(c)
DAV:   1    -0.155257110566E+04    0.12653E-04   -0.13561E-03 11284   0.493E-02    0.610E-03
DAV:   2    -0.155257110941E+04   -0.37556E-05   -0.81637E-06  5796   0.502E-03    0.434E-03
DAV:   3    -0.155257110977E+04   -0.36002E-06   -0.28950E-06  5782   0.365E-03    0.329E-03
DAV:   4    -0.155257111184E+04   -0.20722E-05   -0.15172E-06  5796   0.212E-03    0.152E-03
DAV:   5    -0.155257111321E+04   -0.13678E-05   -0.80267E-07  5796   0.155E-03
  36 F= -.15525711E+04 E0= -.15525906E+04  d E =0.502422E-05
       N       E                     dE             d eps       ncg     rms          rms(c)
DAV:   1    -0.155257112931E+04   -0.17462E-04   -0.23394E-03 11284   0.638E-02    0.576E-03
DAV:   2    -0.155257112745E+04    0.18572E-05   -0.11270E-05  5796   0.537E-03    0.426E-03
DAV:   3    -0.155257112693E+04    0.51922E-06   -0.36679E-06  5796   0.320E-03    0.338E-03
DAV:   4    -0.155257112500E+04    0.19308E-05   -0.22260E-06  5796   0.238E-03    0.119E-03
DAV:   5    -0.155257112453E+04    0.47281E-06   -0.11076E-06  5796   0.173E-03
  37 F= -.15525711E+04 E0= -.15525906E+04  d E =-.113140E-04
       N       E                     dE             d eps       ncg     rms          rms(c)
DAV:   1    -0.155257113242E+04   -0.74241E-05   -0.14987E-03 11284   0.508E-02    0.437E-03
DAV:   2    -0.155257113347E+04   -0.10441E-05   -0.90609E-06  6073   0.450E-03    0.337E-03
DAV:   3    -0.155257113379E+04   -0.32834E-06   -0.34252E-06  5803   0.275E-03    0.257E-03
DAV:   4    -0.155257113438E+04   -0.58233E-06   -0.22921E-06  5817   0.230E-03    0.656E-04
DAV:   5    -0.155257113446E+04   -0.81588E-07   -0.11077E-06  5817   0.168E-03
  38 F= -.15525711E+04 E0= -.15525906E+04  d E =-.993333E-05
       N       E                     dE             d eps       ncg     rms          rms(c)
DAV:   1    -0.155257113686E+04   -0.24798E-05   -0.33626E-05  7672   0.987E-03    0.263E-03
DAV:   2    -0.155257113393E+04    0.29239E-05   -0.19588E-06  5796   0.311E-03    0.159E-03
DAV:   3    -0.155257113319E+04    0.74720E-06   -0.53321E-07  5796   0.177E-03    0.130E-03
DAV:   4    -0.155257113170E+04    0.14819E-05   -0.29416E-07  5796   0.107E-03    0.620E-04
DAV:   5    -0.155257113073E+04    0.96967E-06   -0.17679E-07  5796   0.713E-04
  39 F= -.15525711E+04 E0= -.15525906E+04  d E =0.372442E-05
       N       E                     dE             d eps       ncg     rms          rms(c)
DAV:   1    -0.155257113393E+04   -0.22248E-05   -0.36218E-04 11234   0.252E-02    0.262E-03
DAV:   2    -0.155257113552E+04   -0.15890E-05   -0.22953E-06  5796   0.239E-03    0.194E-03
DAV:   3    -0.155257113581E+04   -0.29006E-06   -0.89561E-07  5789   0.161E-03    0.149E-03
DAV:   4    -0.155257113688E+04   -0.10721E-05   -0.52877E-07  5796   0.109E-03    0.621E-04
DAV:   5    -0.155257113736E+04   -0.47762E-06   -0.28512E-07  5796   0.857E-04
  40 F= -.15525711E+04 E0= -.15525906E+04  d E =-.662325E-05
       N       E                     dE             d eps       ncg     rms          rms(c)
DAV:   1    -0.155257114176E+04   -0.48760E-05   -0.53168E-04 11284   0.303E-02    0.266E-03
DAV:   2    -0.155257114184E+04   -0.86856E-07   -0.31693E-06  5796   0.269E-03    0.205E-03
DAV:   3    -0.155257114187E+04   -0.22595E-07   -0.11913E-06  5789   0.167E-03    0.159E-03
DAV:   4    -0.155257114175E+04    0.11679E-06   -0.80436E-07  5796   0.138E-03    0.421E-04
DAV:   5    -0.155257114176E+04   -0.14731E-07   -0.39373E-07  5796   0.103E-03
  41 F= -.15525711E+04 E0= -.15525906E+04  d E =-.440576E-05
       N       E                     dE             d eps       ncg     rms          rms(c)
DAV:   1    -0.155257115428E+04   -0.12535E-04   -0.20231E-02 11186   0.187E-01    0.159E-02
DAV:   2    -0.155257116549E+04   -0.11207E-04   -0.17163E-04 15848   0.155E-02    0.125E-02
DAV:   3    -0.155257116397E+04    0.15199E-05   -0.91649E-06  6689   0.580E-03    0.967E-03
DAV:   4    -0.155257116134E+04    0.26302E-05   -0.97159E-06  6080   0.579E-03    0.254E-03
DAV:   5    -0.155257116118E+04    0.16385E-06   -0.28669E-06  5873   0.374E-03
  42 F= -.15525712E+04 E0= -.15525907E+04  d E =-.194134E-04
       N       E                     dE             d eps       ncg     rms          rms(c)
DAV:   1    -0.155257116248E+04   -0.11361E-05   -0.40463E-03 11256   0.836E-02    0.668E-03
DAV:   2    -0.155257116384E+04   -0.13683E-05   -0.22605E-05  7520   0.731E-03    0.531E-03
DAV:   3    -0.155257116408E+04   -0.23596E-06   -0.78832E-06  5906   0.434E-03    0.412E-03
DAV:   4    -0.155257116380E+04    0.27626E-06   -0.52427E-06  5838   0.340E-03    0.803E-04
DAV:   5    -0.155257116403E+04   -0.23025E-06   -0.24282E-06  5838   0.249E-03
  43 F= -.15525712E+04 E0= -.15525907E+04  d E =-.285816E-05
