       N       E                     dE             d eps       ncg     rms          rms(c)
DAV:   1     0.194215121164E+04    0.19422E+04   -0.27682E+05 11172   0.142E+03
DAV:   2    -0.118546388814E+04   -0.31276E+04   -0.30068E+04 12902   0.266E+02
DAV:   3    -0.157719604485E+04   -0.39173E+03   -0.35595E+03 17544   0.823E+01
DAV:   4    -0.160230881413E+04   -0.25113E+02   -0.22667E+02 15912   0.161E+01
DAV:   5    -0.160346632927E+04   -0.11575E+01   -0.11274E+01 16728   0.443E+00    0.378E+01
DAV:   6    -0.156763096730E+04    0.35835E+02   -0.99876E+01 17336   0.140E+01    0.223E+01
DAV:   7    -0.155897424312E+04    0.86567E+01   -0.89762E+01 17800   0.154E+01    0.179E+01
DAV:   8    -0.154746951674E+04    0.11505E+02   -0.62640E+01 16456   0.115E+01    0.108E+01
DAV:   9    -0.154134827884E+04    0.61212E+01   -0.26714E+01 16048   0.789E+00    0.285E+00
DAV:  10    -0.154130551747E+04    0.42761E-01   -0.45649E+00 15648   0.294E+00    0.138E+00
DAV:  11    -0.154131106054E+04   -0.55431E-02   -0.55755E-01 15416   0.109E+00    0.104E+00
DAV:  12    -0.154129121214E+04    0.19848E-01   -0.16492E-01 14632   0.600E-01    0.653E-01
DAV:  13    -0.154127742322E+04    0.13789E-01   -0.64937E-02 13984   0.408E-01    0.362E-01
DAV:  14    -0.154127257733E+04    0.48459E-02   -0.20718E-02 14328   0.199E-01    0.143E-01
DAV:  15    -0.154127228990E+04    0.28743E-03   -0.51462E-03 15752   0.106E-01    0.777E-02
DAV:  16    -0.154127221487E+04    0.75026E-04   -0.13986E-03 15952   0.596E-02    0.514E-02
DAV:  17    -0.154127216888E+04    0.45991E-04   -0.58064E-04 14904   0.372E-02    0.284E-02
DAV:  18    -0.154127215338E+04    0.15502E-04   -0.18286E-04 14376   0.212E-02    0.132E-02
DAV:  19    -0.154127214851E+04    0.48681E-05   -0.41380E-05  8840   0.114E-02
   1 F= -.15412721E+04 E0= -.15412707E+04  d E =-.154127E+04
       N       E                     dE             d eps       ncg     rms          rms(c)
DAV:   1    -0.154489491742E+04   -0.36228E+01   -0.26661E+03 11172   0.799E+01    0.277E+01
DAV:   2    -0.151670942122E+04    0.28185E+02   -0.16979E+02 18432   0.183E+01    0.186E+01
DAV:   3    -0.150980674841E+04    0.69027E+01   -0.99929E+01 18728   0.140E+01    0.152E+01
DAV:   4    -0.150139546776E+04    0.84113E+01   -0.46807E+01 20200   0.899E+00    0.103E+01
DAV:   5    -0.149702725901E+04    0.43682E+01   -0.31734E+01 17672   0.657E+00    0.428E+00
DAV:   6    -0.149654114926E+04    0.48611E+00   -0.66908E+00 16848   0.324E+00    0.269E+00
DAV:   7    -0.149646694074E+04    0.74209E-01   -0.98255E-01 15328   0.140E+00    0.211E+00
DAV:   8    -0.149639721281E+04    0.69728E-01   -0.32869E-01 17744   0.639E-01    0.124E+00
DAV:   9    -0.149637799936E+04    0.19213E-01   -0.30827E-01 17888   0.525E-01    0.537E-01
DAV:  10    -0.149637557309E+04    0.24263E-02   -0.65418E-02 17192   0.316E-01    0.326E-01
DAV:  11    -0.149637317217E+04    0.24009E-02   -0.17666E-02 17560   0.192E-01    0.212E-01
DAV:  12    -0.149637267739E+04    0.49478E-03   -0.95188E-03 19440   0.112E-01    0.111E-01
DAV:  13    -0.149637307819E+04   -0.40080E-03   -0.29795E-03 16680   0.605E-02    0.582E-02
DAV:  14    -0.149637341245E+04   -0.33426E-03   -0.11418E-03 17664   0.449E-02    0.592E-02
DAV:  15    -0.149637332093E+04    0.91515E-04   -0.51748E-04 17352   0.327E-02    0.342E-02
DAV:  16    -0.149637329266E+04    0.28270E-04   -0.32119E-04 18872   0.206E-02    0.139E-02
DAV:  17    -0.149637329885E+04   -0.61871E-05   -0.36279E-05  7992   0.828E-03
   2 F= -.14963733E+04 E0= -.14963824E+04  d E =0.448988E+02
       N       E                     dE             d eps       ncg     rms          rms(c)
DAV:   1    -0.157468171096E+04   -0.78308E+02   -0.13464E+03 11172   0.629E+01    0.193E+01
DAV:   2    -0.155970822216E+04    0.14973E+02   -0.48157E+01 17144   0.113E+01    0.103E+01
DAV:   3    -0.155712933891E+04    0.25789E+01   -0.31612E+01 18168   0.850E+00    0.850E+00
DAV:   4    -0.155399784780E+04    0.31315E+01   -0.14788E+01 17568   0.576E+00    0.534E+00
DAV:   5    -0.155253951952E+04    0.14583E+01   -0.81796E+00 16104   0.409E+00    0.167E+00
DAV:   6    -0.155249135707E+04    0.48162E-01   -0.15360E+00 14760   0.174E+00    0.943E-01
DAV:   7    -0.155249667248E+04   -0.53154E-02   -0.21132E-01 14760   0.683E-01    0.731E-01
DAV:   8    -0.155249691247E+04   -0.23999E-03   -0.53276E-02 15664   0.307E-01    0.422E-01
DAV:   9    -0.155251120565E+04   -0.14293E-01   -0.78516E-02 16424   0.309E-01    0.314E-01
DAV:  10    -0.155250878754E+04    0.24181E-02   -0.14808E-02 15496   0.197E-01    0.141E-01
DAV:  11    -0.155250860495E+04    0.18258E-03   -0.53093E-03 16656   0.859E-02    0.599E-02
DAV:  12    -0.155250892364E+04   -0.31869E-03   -0.11223E-03 16504   0.472E-02    0.489E-02
DAV:  13    -0.155250907775E+04   -0.15411E-03   -0.52668E-04 15000   0.336E-02    0.232E-02
DAV:  14    -0.155250908210E+04   -0.43450E-05   -0.14524E-04 14008   0.162E-02    0.119E-02
DAV:  15    -0.155250907679E+04    0.53082E-05   -0.26137E-05  6968   0.775E-03
   3 F= -.15525091E+04 E0= -.15525334E+04  d E =-.561358E+02
       N       E                     dE             d eps       ncg     rms          rms(c)
DAV:   1    -0.155296406590E+04   -0.45498E+00   -0.29290E+01 11172   0.769E+00    0.131E+00
DAV:   2    -0.155293093455E+04    0.33131E-01   -0.50129E-01 16152   0.830E-01    0.761E-01
DAV:   3    -0.155292427408E+04    0.66605E-02   -0.13976E-01 18248   0.534E-01    0.646E-01
DAV:   4    -0.155290610002E+04    0.18174E-01   -0.68975E-02 17680   0.414E-01    0.367E-01
DAV:   5    -0.155290010606E+04    0.59940E-02   -0.35509E-02 15480   0.272E-01    0.125E-01
DAV:   6    -0.155289999595E+04    0.11010E-03   -0.71095E-03 14512   0.123E-01    0.793E-02
DAV:   7    -0.155289997539E+04    0.20566E-04   -0.14966E-03 15824   0.616E-02    0.589E-02
DAV:   8    -0.155289992974E+04    0.45649E-04   -0.59268E-04 15592   0.356E-02    0.335E-02
DAV:   9    -0.155289994482E+04   -0.15079E-04   -0.23781E-04 14672   0.212E-02    0.195E-02
DAV:  10    -0.155289996009E+04   -0.15270E-04   -0.61461E-05 11296   0.121E-02    0.996E-03
DAV:  11    -0.155289996188E+04   -0.17887E-05   -0.15672E-05  6928   0.764E-03
   4 F= -.15529000E+04 E0= -.15529221E+04  d E =-.390885E+00
       N       E                     dE             d eps       ncg     rms          rms(c)
DAV:   1    -0.155296140058E+04   -0.61440E-01   -0.44021E+00 11186   0.285E+00    0.484E-01
DAV:   2    -0.155296491977E+04   -0.35192E-02   -0.12118E-01 17920   0.511E-01    0.408E-01
DAV:   3    -0.155295655305E+04    0.83667E-02   -0.44808E-02 17880   0.338E-01    0.236E-01
DAV:   4    -0.155295432274E+04    0.22303E-02   -0.99297E-03 16392   0.138E-01    0.146E-01
DAV:   5    -0.155295363099E+04    0.69175E-03   -0.42032E-03 15392   0.960E-02    0.799E-02
DAV:   6    -0.155295336986E+04    0.26113E-03   -0.16875E-03 14976   0.629E-02    0.414E-02
DAV:   7    -0.155295331805E+04    0.51813E-04   -0.42836E-04 15840   0.344E-02    0.269E-02
DAV:   8    -0.155295331086E+04    0.71899E-05   -0.11419E-04 13328   0.151E-02    0.159E-02
DAV:   9    -0.155295331691E+04   -0.60543E-05   -0.54510E-05 10944   0.102E-02
   5 F= -.15529533E+04 E0= -.15529758E+04  d E =-.533550E-01
       N       E                     dE             d eps       ncg     rms          rms(c)
DAV:   1    -0.155297344258E+04   -0.20132E-01   -0.21932E+00 11200   0.199E+00    0.233E-01
DAV:   2    -0.155297720218E+04   -0.37596E-02   -0.39683E-02 17360   0.276E-01    0.242E-01
DAV:   3    -0.155297422059E+04    0.29816E-02   -0.12029E-02 17776   0.177E-01    0.128E-01
DAV:   4    -0.155297388782E+04    0.33277E-03   -0.24369E-03 16008   0.656E-02    0.836E-02
DAV:   5    -0.155297375374E+04    0.13408E-03   -0.12659E-03 14848   0.504E-02    0.394E-02
DAV:   6    -0.155297373012E+04    0.23614E-04   -0.45423E-04 15816   0.339E-02    0.219E-02
DAV:   7    -0.155297371286E+04    0.17268E-04   -0.13427E-04 14552   0.190E-02    0.121E-02
DAV:   8    -0.155297370505E+04    0.78100E-05   -0.27486E-05  7176   0.870E-03
   6 F= -.15529737E+04 E0= -.15529958E+04  d E =-.203881E-01
       N       E                     dE             d eps       ncg     rms          rms(c)
DAV:   1    -0.155298254440E+04   -0.88315E-02   -0.54699E-01 11284   0.103E+00    0.204E-01
DAV:   2    -0.155298279614E+04   -0.25174E-03   -0.16547E-02 18224   0.207E-01    0.180E-01
DAV:   3    -0.155298097891E+04    0.18172E-02   -0.80823E-03 18192   0.143E-01    0.964E-02
DAV:   4    -0.155298055616E+04    0.42275E-03   -0.17391E-03 15904   0.568E-02    0.588E-02
DAV:   5    -0.155298037614E+04    0.18002E-03   -0.79412E-04 15288   0.430E-02    0.302E-02
DAV:   6    -0.155298032039E+04    0.55758E-04   -0.27752E-04 15192   0.263E-02    0.170E-02
DAV:   7    -0.155298030806E+04    0.12330E-04   -0.67550E-05 12680   0.142E-02    0.105E-02
DAV:   8    -0.155298030899E+04   -0.93672E-06   -0.17337E-05  6528   0.681E-03
   7 F= -.15529803E+04 E0= -.15530025E+04  d E =-.660395E-02
       N       E                     dE             d eps       ncg     rms          rms(c)
DAV:   1    -0.155298560646E+04   -0.52984E-02   -0.36545E-01 11277   0.823E-01    0.109E-01
DAV:   2    -0.155298615451E+04   -0.54805E-03   -0.58423E-03 17280   0.111E-01    0.108E-01
DAV:   3    -0.155298557636E+04    0.57815E-03   -0.21792E-03 17921   0.753E-02    0.586E-02
DAV:   4    -0.155298551924E+04    0.57125E-04   -0.53774E-04 14848   0.318E-02    0.310E-02
DAV:   5    -0.155298551497E+04    0.42694E-05   -0.24327E-04 15072   0.239E-02    0.143E-02
DAV:   6    -0.155298551304E+04    0.19296E-05   -0.64679E-05 12264   0.141E-02
   8 F= -.15529855E+04 E0= -.15530076E+04  d E =-.520404E-02
       N       E                     dE             d eps       ncg     rms          rms(c)
DAV:   1    -0.155298847491E+04   -0.29599E-02   -0.25883E-01 11263   0.679E-01    0.923E-02
DAV:   2    -0.155298913260E+04   -0.65769E-03   -0.57689E-03 18200   0.122E-01    0.112E-01
DAV:   3    -0.155298834237E+04    0.79023E-03   -0.25928E-03 18009   0.818E-02    0.468E-02
DAV:   4    -0.155298827401E+04    0.68365E-04   -0.37788E-04 15968   0.256E-02    0.318E-02
DAV:   5    -0.155298823224E+04    0.41770E-04   -0.17734E-04 15080   0.201E-02    0.172E-02
DAV:   6    -0.155298821561E+04    0.16625E-04   -0.72138E-05 13168   0.144E-02    0.955E-03
DAV:   7    -0.155298821092E+04    0.46936E-05   -0.19011E-05  6880   0.839E-03
   9 F= -.15529882E+04 E0= -.15530103E+04  d E =-.269788E-02
       N       E                     dE             d eps       ncg     rms          rms(c)
DAV:   1    -0.155298956323E+04   -0.13476E-02   -0.12523E-01 11298   0.476E-01    0.575E-02
DAV:   2    -0.155298981818E+04   -0.25495E-03   -0.18858E-03 17336   0.655E-02    0.646E-02
DAV:   3    -0.155298959417E+04    0.22401E-03   -0.74915E-04 17817   0.446E-02    0.317E-02
DAV:   4    -0.155298959261E+04    0.15589E-05   -0.14956E-04 14064   0.170E-02    0.156E-02
DAV:   5    -0.155298959760E+04   -0.49928E-05   -0.54402E-05 10912   0.126E-02
  10 F= -.15529896E+04 E0= -.15530116E+04  d E =-.138669E-02
       N       E                     dE             d eps       ncg     rms          rms(c)
DAV:   1    -0.155299050967E+04   -0.91706E-03   -0.47300E-02 11326   0.297E-01    0.501E-02
DAV:   2    -0.155299054553E+04   -0.35860E-04   -0.10800E-03 18056   0.534E-02    0.495E-02
DAV:   3    -0.155299039921E+04    0.14632E-03   -0.52829E-04 17936   0.371E-02    0.246E-02
DAV:   4    -0.155299036462E+04    0.34591E-04   -0.10157E-04 14080   0.137E-02    0.150E-02
DAV:   5    -0.155299034138E+04    0.23241E-04   -0.40464E-05  8712   0.109E-02    0.712E-03
DAV:   6    -0.155299033545E+04    0.59288E-05   -0.12329E-05  6464   0.743E-03
  11 F= -.15529903E+04 E0= -.15530123E+04  d E =-.737847E-03
       N       E                     dE             d eps       ncg     rms          rms(c)
DAV:   1    -0.155299102289E+04   -0.68151E-03   -0.63398E-02 11270   0.334E-01    0.350E-02
DAV:   2    -0.155299116277E+04   -0.13988E-03   -0.89577E-04 17488   0.454E-02    0.441E-02
DAV:   3    -0.155299105351E+04    0.10926E-03   -0.34021E-04 17666   0.302E-02    0.207E-02
DAV:   4    -0.155299105480E+04   -0.12835E-05   -0.55909E-05 11064   0.107E-02    0.104E-02
DAV:   5    -0.155299105744E+04   -0.26433E-05   -0.18792E-05  6936   0.846E-03
  12 F= -.15529911E+04 E0= -.15530130E+04  d E =-.721989E-03
       N       E                     dE             d eps       ncg     rms          rms(c)
DAV:   1    -0.155299154254E+04   -0.48775E-03   -0.42270E-02 11312   0.274E-01    0.333E-02
DAV:   2    -0.155299160295E+04   -0.60402E-04   -0.70167E-04 17720   0.412E-02    0.381E-02
DAV:   3    -0.155299151560E+04    0.87346E-04   -0.28651E-04 17424   0.277E-02    0.180E-02
DAV:   4    -0.155299149973E+04    0.15870E-04   -0.38362E-05  8448   0.935E-03    0.111E-02
DAV:   5    -0.155299148862E+04    0.11111E-04   -0.19449E-05  6512   0.785E-03    0.535E-03
DAV:   6    -0.155299148542E+04    0.32029E-05   -0.66327E-06  6232   0.574E-03
  13 F= -.15529915E+04 E0= -.15530135E+04  d E =-.427976E-03
       N       E                     dE             d eps       ncg     rms          rms(c)
DAV:   1    -0.155299173345E+04   -0.24483E-03   -0.15303E-02 11298   0.167E-01    0.211E-02
DAV:   2    -0.155299175572E+04   -0.22265E-04   -0.17332E-04 16448   0.180E-02    0.173E-02
DAV:   3    -0.155299174680E+04    0.89121E-05   -0.38889E-05  9313   0.115E-02    0.115E-02
DAV:   4    -0.155299175389E+04   -0.70842E-05   -0.17775E-05  6288   0.702E-03    0.483E-03
DAV:   5    -0.155299175864E+04   -0.47529E-05   -0.67298E-06  6168   0.526E-03
  14 F= -.15529918E+04 E0= -.15530137E+04  d E =-.273224E-03
       N       E                     dE             d eps       ncg     rms          rms(c)
DAV:   1    -0.155299204551E+04   -0.29162E-03   -0.22495E-02 11298   0.199E-01    0.219E-02
DAV:   2    -0.155299207353E+04   -0.28022E-04   -0.30756E-04 17568   0.272E-02    0.254E-02
DAV:   3    -0.155299203572E+04    0.37819E-04   -0.11642E-04 15144   0.181E-02    0.125E-02
DAV:   4    -0.155299202758E+04    0.81340E-05   -0.17637E-05  6624   0.698E-03    0.731E-03
DAV:   5    -0.155299202178E+04    0.58055E-05   -0.92543E-06  6216   0.597E-03
  15 F= -.15529920E+04 E0= -.15530140E+04  d E =-.263135E-03
       N       E                     dE             d eps       ncg     rms          rms(c)
DAV:   1    -0.155299225292E+04   -0.22534E-03   -0.24208E-02 11284   0.206E-01    0.193E-02
DAV:   2    -0.155299228373E+04   -0.30807E-04   -0.24672E-04 16696   0.214E-02    0.192E-02
DAV:   3    -0.155299226934E+04    0.14392E-04   -0.46531E-05  9897   0.126E-02    0.122E-02
DAV:   4    -0.155299227249E+04   -0.31511E-05   -0.20478E-05  6256   0.717E-03    0.451E-03
DAV:   5    -0.155299227482E+04   -0.23323E-05   -0.72262E-06  6184   0.579E-03
  16 F= -.15529923E+04 E0= -.15530143E+04  d E =-.253044E-03
       N       E                     dE             d eps       ncg     rms          rms(c)
DAV:   1    -0.155299241238E+04   -0.13989E-03   -0.76738E-03 11312   0.118E-01    0.156E-02
DAV:   2    -0.155299240700E+04    0.53735E-05   -0.10197E-04 14416   0.161E-02    0.141E-02
DAV:   3    -0.155299239479E+04    0.12210E-04   -0.35043E-05  8816   0.114E-02    0.794E-03
DAV:   4    -0.155299238852E+04    0.62735E-05   -0.11426E-05  6072   0.555E-03    0.468E-03
DAV:   5    -0.155299238293E+04    0.55896E-05   -0.58283E-06  5944   0.449E-03
  17 F= -.15529924E+04 E0= -.15530144E+04  d E =-.108111E-03
       N       E                     dE             d eps       ncg     rms          rms(c)
DAV:   1    -0.155299251248E+04   -0.12396E-03   -0.98530E-03 11284   0.132E-01    0.133E-02
DAV:   2    -0.155299252574E+04   -0.13258E-04   -0.92043E-05 14248   0.131E-02    0.117E-02
DAV:   3    -0.155299252232E+04    0.34229E-05   -0.16152E-05  7066   0.787E-03    0.816E-03
DAV:   4    -0.155299252665E+04   -0.43293E-05   -0.10033E-05  5952   0.484E-03    0.292E-03
DAV:   5    -0.155299252846E+04   -0.18097E-05   -0.37140E-06  5913   0.393E-03
  18 F= -.15529925E+04 E0= -.15530145E+04  d E =-.145527E-03
       N       E                     dE             d eps       ncg     rms          rms(c)
DAV:   1    -0.155299267117E+04   -0.14452E-03   -0.13409E-02 11284   0.153E-01    0.144E-02
DAV:   2    -0.155299267796E+04   -0.67972E-05   -0.13254E-04 15616   0.160E-02    0.137E-02
DAV:   3    -0.155299266969E+04    0.82716E-05   -0.21776E-05  7664   0.975E-03    0.906E-03
DAV:   4    -0.155299266537E+04    0.43218E-05   -0.12280E-05  6024   0.532E-03    0.442E-03
DAV:   5    -0.155299266299E+04    0.23757E-05   -0.55546E-06  5952   0.471E-03
  19 F= -.15529927E+04 E0= -.15530147E+04  d E =-.134535E-03
       N       E                     dE             d eps       ncg     rms          rms(c)
DAV:   1    -0.155299274680E+04   -0.81427E-04   -0.67182E-03 11298   0.109E-01    0.109E-02
DAV:   2    -0.155299275637E+04   -0.95765E-05   -0.55912E-05 11288   0.106E-02    0.885E-03
DAV:   3    -0.155299275581E+04    0.56595E-06   -0.12483E-05  6553   0.648E-03    0.643E-03
DAV:   4    -0.155299275991E+04   -0.41030E-05   -0.60920E-06  5880   0.381E-03    0.244E-03
DAV:   5    -0.155299276193E+04   -0.20195E-05   -0.26386E-06  5880   0.300E-03
  20 F= -.15529928E+04 E0= -.15530148E+04  d E =-.989357E-04
       N       E                     dE             d eps       ncg     rms          rms(c)
DAV:   1    -0.155299284163E+04   -0.81720E-04   -0.47155E-03 11284   0.912E-02    0.102E-02
DAV:   2    -0.155299283616E+04    0.54701E-05   -0.37784E-05  9088   0.947E-03    0.757E-03
DAV:   3    -0.155299283395E+04    0.22057E-05   -0.11998E-05  6497   0.664E-03    0.559E-03
DAV:   4    -0.155299282987E+04    0.40845E-05   -0.53960E-06  5838   0.384E-03    0.286E-03
DAV:   5    -0.155299282736E+04    0.25116E-05   -0.31259E-06  5838   0.299E-03
  21 F= -.15529928E+04 E0= -.15530148E+04  d E =-.654282E-04
       N       E                     dE             d eps       ncg     rms          rms(c)
DAV:   1    -0.155299290189E+04   -0.72020E-04   -0.65592E-03 11284   0.107E-01    0.987E-03
DAV:   2    -0.155299290901E+04   -0.71230E-05   -0.58329E-05 11680   0.953E-03    0.781E-03
DAV:   3    -0.155299290932E+04   -0.31165E-06   -0.81246E-06  6073   0.514E-03    0.616E-03
DAV:   4    -0.155299291172E+04   -0.23995E-05   -0.48311E-06  5859   0.354E-03    0.172E-03
DAV:   5    -0.155299291252E+04   -0.79304E-06   -0.17847E-06  5859   0.248E-03
  22 F= -.15529929E+04 E0= -.15530149E+04  d E =-.851585E-04
       N       E                     dE             d eps       ncg     rms          rms(c)
DAV:   1    -0.155299297938E+04   -0.67662E-04   -0.50634E-03 11284   0.939E-02    0.897E-03
DAV:   2    -0.155299297666E+04    0.27232E-05   -0.34147E-05  8752   0.868E-03    0.666E-03
DAV:   3    -0.155299297571E+04    0.95453E-06   -0.10170E-05  6089   0.557E-03    0.517E-03
DAV:   4    -0.155299297266E+04    0.30471E-05   -0.52732E-06  5838   0.372E-03    0.229E-03
DAV:   5    -0.155299297134E+04    0.13170E-05   -0.29907E-06  5838   0.282E-03
  23 F= -.15529930E+04 E0= -.15530150E+04  d E =-.588269E-04
       N       E                     dE             d eps       ncg     rms          rms(c)
DAV:   1    -0.155299301903E+04   -0.46369E-04   -0.38637E-03 11284   0.822E-02    0.821E-03
DAV:   2    -0.155299302400E+04   -0.49753E-05   -0.24826E-05  7440   0.749E-03    0.580E-03
DAV:   3    -0.155299302588E+04   -0.18764E-05   -0.93551E-06  5970   0.495E-03    0.434E-03
DAV:   4    -0.155299302860E+04   -0.27165E-05   -0.55100E-06  5838   0.391E-03    0.165E-03
DAV:   5    -0.155299302985E+04   -0.12484E-05   -0.30720E-06  5838   0.283E-03
  24 F= -.15529930E+04 E0= -.15530150E+04  d E =-.585028E-04
       N       E                     dE             d eps       ncg     rms          rms(c)
DAV:   1    -0.155299307511E+04   -0.46512E-04   -0.26528E-03 11284   0.681E-02    0.734E-03
DAV:   2    -0.155299307125E+04    0.38560E-05   -0.19108E-05  6672   0.689E-03    0.515E-03
DAV:   3    -0.155299307040E+04    0.85095E-06   -0.76711E-06  5929   0.497E-03    0.402E-03
DAV:   4    -0.155299306782E+04    0.25797E-05   -0.42040E-06  5838   0.340E-03    0.193E-03
DAV:   5    -0.155299306651E+04    0.13111E-05   -0.25209E-06  5838   0.263E-03
  25 F= -.15529931E+04 E0= -.15530151E+04  d E =-.366656E-04
       N       E                     dE             d eps       ncg     rms          rms(c)
DAV:   1    -0.155299310715E+04   -0.39330E-04   -0.33434E-03 11284   0.760E-02    0.695E-03
DAV:   2    -0.155299311035E+04   -0.31929E-05   -0.21213E-05  7712   0.689E-03    0.522E-03
DAV:   3    -0.155299311137E+04   -0.10195E-05   -0.78583E-06  5923   0.440E-03    0.396E-03
DAV:   4    -0.155299311330E+04   -0.19374E-05   -0.50692E-06  5796   0.354E-03    0.100E-03
DAV:   5    -0.155299311374E+04   -0.43621E-06   -0.25724E-06  5796   0.262E-03
  26 F= -.15529931E+04 E0= -.15530151E+04  d E =-.472276E-04
       N       E                     dE             d eps       ncg     rms          rms(c)
DAV:   1    -0.155299316106E+04   -0.47753E-04   -0.43892E-03 11284   0.872E-02    0.824E-03
DAV:   2    -0.155299315915E+04    0.19019E-05   -0.33225E-05  8720   0.813E-03    0.605E-03
DAV:   3    -0.155299315847E+04    0.68089E-06   -0.90857E-06  5977   0.513E-03    0.470E-03
DAV:   4    -0.155299315604E+04    0.24315E-05   -0.48829E-06  5817   0.372E-03    0.205E-03
DAV:   5    -0.155299315502E+04    0.10186E-05   -0.28143E-06  5817   0.275E-03
  27 F= -.15529932E+04 E0= -.15530152E+04  d E =-.412842E-04
       N       E                     dE             d eps       ncg     rms          rms(c)
DAV:   1    -0.155299316955E+04   -0.13504E-04   -0.64043E-04 11298   0.339E-02    0.444E-03
DAV:   2    -0.155299317288E+04   -0.33337E-05   -0.58999E-06  5796   0.377E-03    0.288E-03
DAV:   3    -0.155299317389E+04   -0.10115E-05   -0.25543E-06  5796   0.294E-03    0.224E-03
DAV:   4    -0.155299317564E+04   -0.17530E-05   -0.14510E-06  5796   0.202E-03    0.107E-03
DAV:   5    -0.155299317676E+04   -0.11177E-05   -0.86138E-07  5796   0.154E-03
  28 F= -.15529932E+04 E0= -.15530152E+04  d E =-.217388E-04
       N       E                     dE             d eps       ncg     rms          rms(c)
DAV:   1    -0.155299321169E+04   -0.36046E-04   -0.29036E-03 11284   0.708E-02    0.637E-03
DAV:   2    -0.155299321117E+04    0.51822E-06   -0.16725E-05  6976   0.625E-03    0.477E-03
DAV:   3    -0.155299321106E+04    0.11202E-06   -0.62129E-06  5859   0.390E-03    0.367E-03
DAV:   4    -0.155299320982E+04    0.12436E-05   -0.38484E-06  5796   0.309E-03    0.103E-03
DAV:   5    -0.155299320977E+04    0.50680E-07   -0.20049E-06  5796   0.225E-03
  29 F= -.15529932E+04 E0= -.15530152E+04  d E =-.330038E-04
       N       E                     dE             d eps       ncg     rms          rms(c)
DAV:   1    -0.155299326273E+04   -0.52917E-04   -0.12052E-02 11270   0.144E-01    0.126E-02
DAV:   2    -0.155299327326E+04   -0.10529E-04   -0.11164E-04 15304   0.123E-02    0.976E-03
DAV:   3    -0.155299327380E+04   -0.53712E-06   -0.69033E-06  6100   0.482E-03    0.621E-03
DAV:   4    -0.155299327515E+04   -0.13540E-05   -0.45889E-06  5963   0.466E-03    0.246E-03
DAV:   5    -0.155299327551E+04   -0.36033E-06   -0.18291E-06  5854   0.300E-03
  30 F= -.15529933E+04 E0= -.15530153E+04  d E =-.657474E-04
       N       E                     dE             d eps       ncg     rms          rms(c)
DAV:   1    -0.155299325996E+04    0.15190E-04   -0.18951E-03 11284   0.581E-02    0.682E-03
DAV:   2    -0.155299325432E+04    0.56457E-05   -0.10013E-05  5796   0.509E-03    0.440E-03
DAV:   3    -0.155299325227E+04    0.20509E-05   -0.36299E-06  5782   0.339E-03    0.332E-03
DAV:   4    -0.155299324944E+04    0.28269E-05   -0.19584E-06  5796   0.269E-03    0.139E-03
DAV:   5    -0.155299324819E+04    0.12456E-05   -0.10865E-06  5796   0.171E-03
  31 F= -.15529932E+04 E0= -.15530153E+04  d E =0.273197E-04
       N       E                     dE             d eps       ncg     rms          rms(c)
DAV:   1    -0.155299328298E+04   -0.33543E-04   -0.43792E-03 11284   0.871E-02    0.730E-03
DAV:   2    -0.155299328370E+04   -0.71653E-06   -0.20375E-05  6067   0.705E-03    0.548E-03
DAV:   3    -0.155299328385E+04   -0.15411E-06   -0.64535E-06  5796   0.393E-03    0.408E-03
DAV:   4    -0.155299328353E+04    0.32613E-06   -0.42748E-06  5796   0.334E-03    0.933E-04
DAV:   5    -0.155299328368E+04   -0.14916E-06   -0.18860E-06  5796   0.215E-03
  32 F= -.15529933E+04 E0= -.15530153E+04  d E =-.354820E-04
       N       E                     dE             d eps       ncg     rms          rms(c)
DAV:   1    -0.155299336193E+04   -0.78405E-04   -0.52491E-02 11214   0.301E-01    0.255E-02
DAV:   2    -0.155299339088E+04   -0.28950E-04   -0.45065E-04 16512   0.250E-02    0.199E-02
DAV:   3    -0.155299338592E+04    0.49591E-05   -0.24743E-05  8025   0.917E-03    0.135E-02
DAV:   4    -0.155299338023E+04    0.56946E-05   -0.20106E-05  7280   0.917E-03    0.425E-03
DAV:   5    -0.155299337960E+04    0.63125E-06   -0.63261E-06  6028   0.535E-03
  33 F= -.15529934E+04 E0= -.15530154E+04  d E =-.959212E-04
       N       E                     dE             d eps       ncg     rms          rms(c)
DAV:   1    -0.155299341095E+04   -0.30725E-04   -0.26848E-02 11228   0.215E-01    0.177E-02
DAV:   2    -0.155299342689E+04   -0.15939E-04   -0.23609E-04 16424   0.181E-02    0.140E-02
DAV:   3    -0.155299342472E+04    0.21699E-05   -0.11153E-05  6899   0.673E-03    0.107E-02
DAV:   4    -0.155299342149E+04    0.32361E-05   -0.10954E-05  6192   0.619E-03    0.369E-03
DAV:   5    -0.155299342106E+04    0.42161E-06   -0.40918E-06  5907   0.408E-03
  34 F= -.15529934E+04 E0= -.15530154E+04  d E =-.414675E-04
       N       E                     dE             d eps       ncg     rms          rms(c)
DAV:   1    -0.155299342659E+04   -0.51002E-05   -0.43463E-02 11214   0.274E-01    0.229E-02
DAV:   2    -0.155299345197E+04   -0.25380E-04   -0.36996E-04 16512   0.228E-02    0.179E-02
DAV:   3    -0.155299344801E+04    0.39541E-05   -0.18923E-05  7236   0.826E-03    0.120E-02
DAV:   4    -0.155299344524E+04    0.27757E-05   -0.16138E-05  6936   0.843E-03    0.462E-03
DAV:   5    -0.155299344461E+04    0.62646E-06   -0.61445E-06  6028   0.544E-03
  35 F= -.15529934E+04 E0= -.15530155E+04  d E =-.235453E-04
