       N       E                     dE             d eps       ncg     rms          rms(c)
DAV:   1     0.237464971437E+04    0.23746E+04   -0.29941E+05 11936   0.144E+03
DAV:   2    -0.119649973096E+04   -0.35711E+04   -0.34221E+04 13764   0.314E+02
DAV:   3    -0.165589255543E+04   -0.45939E+03   -0.42956E+03 18360   0.822E+01
DAV:   4    -0.168086574594E+04   -0.24973E+02   -0.23616E+02 16720   0.177E+01
DAV:   5    -0.168193114960E+04   -0.10654E+01   -0.10483E+01 18536   0.406E+00    0.428E+01
DAV:   6    -0.163501890626E+04    0.46912E+02   -0.14690E+02 18032   0.165E+01    0.238E+01
DAV:   7    -0.162297359830E+04    0.12045E+02   -0.93799E+01 18376   0.155E+01    0.177E+01
DAV:   8    -0.161067785857E+04    0.12296E+02   -0.61101E+01 17688   0.124E+01    0.874E+00
DAV:   9    -0.160671789976E+04    0.39600E+01   -0.25615E+01 17304   0.803E+00    0.269E+00
DAV:  10    -0.160673247356E+04   -0.14574E-01   -0.44715E+00 16584   0.305E+00    0.167E+00
DAV:  11    -0.160670775602E+04    0.24718E-01   -0.51506E-01 15552   0.107E+00    0.111E+00
DAV:  12    -0.160668025366E+04    0.27502E-01   -0.20181E-01 14608   0.731E-01    0.564E-01
DAV:  13    -0.160667034381E+04    0.99099E-02   -0.48258E-02 14648   0.407E-01    0.306E-01
DAV:  14    -0.160666768198E+04    0.26618E-02   -0.14473E-02 15512   0.194E-01    0.162E-01
DAV:  15    -0.160666679618E+04    0.88580E-03   -0.54380E-03 14904   0.115E-01    0.727E-02
DAV:  16    -0.160666676980E+04    0.26374E-04   -0.17123E-03 15456   0.593E-02    0.375E-02
DAV:  17    -0.160666676895E+04    0.85133E-06   -0.34589E-04 15960   0.321E-02    0.196E-02
DAV:  18    -0.160666675549E+04    0.13465E-04   -0.11158E-04 15040   0.194E-02    0.102E-02
DAV:  19    -0.160666675298E+04    0.25065E-05   -0.31682E-05  8168   0.951E-03
   1 F= -.16066668E+04 E0= -.16066479E+04  d E =-.160667E+04
       N       E                     dE             d eps       ncg     rms          rms(c)
DAV:   1    -0.160929381583E+04   -0.26271E+01   -0.89075E+02 11928   0.438E+01    0.149E+01
DAV:   2    -0.159990583345E+04    0.93880E+01   -0.41292E+01 17448   0.876E+00    0.777E+00
DAV:   3    -0.159771765363E+04    0.21882E+01   -0.20709E+01 19216   0.662E+00    0.578E+00
DAV:   4    -0.159621473311E+04    0.15029E+01   -0.69661E+00 19520   0.433E+00    0.355E+00
DAV:   5    -0.159553992919E+04    0.67480E+00   -0.39798E+00 16712   0.299E+00    0.105E+00
DAV:   6    -0.159552458969E+04    0.15339E-01   -0.72248E-01 15472   0.130E+00    0.700E-01
DAV:   7    -0.159552233552E+04    0.22542E-02   -0.12356E-01 15968   0.529E-01    0.513E-01
DAV:   8    -0.159552037441E+04    0.19611E-02   -0.42175E-02 16624   0.267E-01    0.264E-01
DAV:   9    -0.159552415751E+04   -0.37831E-02   -0.30107E-02 17304   0.208E-01    0.209E-01
DAV:  10    -0.159552279803E+04    0.13595E-02   -0.62689E-03 16648   0.142E-01    0.140E-01
DAV:  11    -0.159552203866E+04    0.75937E-03   -0.44819E-03 17712   0.829E-02    0.490E-02
DAV:  12    -0.159552210792E+04   -0.69266E-04   -0.10099E-03 17960   0.400E-02    0.343E-02
DAV:  13    -0.159552212440E+04   -0.16480E-04   -0.25827E-04 16384   0.252E-02    0.210E-02
DAV:  14    -0.159552211898E+04    0.54230E-05   -0.10098E-04 14320   0.140E-02    0.895E-03
DAV:  15    -0.159552212134E+04   -0.23618E-05   -0.21419E-05  7664   0.699E-03
   2 F= -.15955221E+04 E0= -.15955363E+04  d E =0.111446E+02
       N       E                     dE             d eps       ncg     rms          rms(c)
DAV:   1    -0.161694127737E+04   -0.21419E+02   -0.36581E+02 11928   0.313E+01    0.107E+01
DAV:   2    -0.161165054968E+04    0.52907E+01   -0.11711E+01 15336   0.534E+00    0.507E+00
DAV:   3    -0.161086723502E+04    0.78331E+00   -0.60020E+00 16512   0.378E+00    0.378E+00
DAV:   4    -0.161008576240E+04    0.78147E+00   -0.29564E+00 17536   0.311E+00    0.181E+00
DAV:   5    -0.160991599758E+04    0.16976E+00   -0.13282E+00 16304   0.185E+00    0.564E-01
DAV:   6    -0.160991540269E+04    0.59490E-03   -0.22314E-01 14584   0.775E-01    0.380E-01
DAV:   7    -0.160991706927E+04   -0.16666E-02   -0.34980E-02 16280   0.271E-01    0.266E-01
DAV:   8    -0.160991931161E+04   -0.22423E-02   -0.14651E-02 16064   0.159E-01    0.117E-01
DAV:   9    -0.160992113211E+04   -0.18205E-02   -0.51465E-03 14128   0.104E-01    0.916E-02
DAV:  10    -0.160992096547E+04    0.16664E-03   -0.11996E-03 14528   0.594E-02    0.524E-02
DAV:  11    -0.160992106175E+04   -0.96285E-04   -0.16074E-03 17696   0.533E-02    0.394E-02
DAV:  12    -0.160992119426E+04   -0.13251E-03   -0.18372E-04 14576   0.191E-02    0.276E-02
DAV:  13    -0.160992118461E+04    0.96569E-05   -0.96732E-05 13936   0.126E-02
   3 F= -.16099212E+04 E0= -.16099187E+04  d E =-.143991E+02
       N       E                     dE             d eps       ncg     rms          rms(c)
DAV:   1    -0.160998527857E+04   -0.64084E-01   -0.10806E+01 11928   0.419E+00    0.528E-01
DAV:   2    -0.160999847696E+04   -0.13198E-01   -0.20994E-01 17240   0.668E-01    0.447E-01
DAV:   3    -0.160998827246E+04    0.10204E-01   -0.59222E-02 18240   0.403E-01    0.271E-01
DAV:   4    -0.160998677562E+04    0.14968E-02   -0.95785E-03 18528   0.156E-01    0.181E-01
DAV:   5    -0.160998597360E+04    0.80202E-03   -0.54149E-03 15856   0.114E-01    0.603E-02
DAV:   6    -0.160998588673E+04    0.86867E-04   -0.13994E-03 16184   0.663E-02    0.358E-02
DAV:   7    -0.160998584425E+04    0.42477E-04   -0.32855E-04 16264   0.311E-02    0.215E-02
DAV:   8    -0.160998583620E+04    0.80585E-05   -0.83384E-05 13752   0.132E-02
   4 F= -.16099858E+04 E0= -.16099843E+04  d E =-.646516E-01
       N       E                     dE             d eps       ncg     rms          rms(c)
DAV:   1    -0.160999898989E+04   -0.13146E-01   -0.23450E+00 11930   0.196E+00    0.229E-01
DAV:   2    -0.161000276252E+04   -0.37726E-02   -0.41662E-02 17392   0.341E-01    0.234E-01
DAV:   3    -0.160999915830E+04    0.36042E-02   -0.14583E-02 17808   0.206E-01    0.120E-01
DAV:   4    -0.160999889568E+04    0.26262E-03   -0.19995E-03 17320   0.672E-02    0.792E-02
DAV:   5    -0.160999874890E+04    0.14678E-03   -0.11545E-03 15408   0.545E-02    0.279E-02
DAV:   6    -0.160999872406E+04    0.24834E-04   -0.31656E-04 15840   0.324E-02    0.176E-02
DAV:   7    -0.160999871196E+04    0.12101E-04   -0.62103E-05 13072   0.136E-02    0.105E-02
DAV:   8    -0.160999870937E+04    0.25870E-05   -0.15369E-05  7536   0.663E-03
   5 F= -.16099987E+04 E0= -.16099975E+04  d E =-.128732E-01
       N       E                     dE             d eps       ncg     rms          rms(c)
DAV:   1    -0.161000213827E+04   -0.34263E-02   -0.78009E-01 11972   0.113E+00    0.132E-01
DAV:   2    -0.161000353975E+04   -0.14015E-02   -0.13491E-02 17448   0.201E-01    0.145E-01
DAV:   3    -0.161000205147E+04    0.14883E-02   -0.53179E-03 17766   0.126E-01    0.692E-02
DAV:   4    -0.161000195086E+04    0.10061E-03   -0.69038E-04 17192   0.395E-02    0.417E-02
DAV:   5    -0.161000189566E+04    0.55200E-04   -0.36172E-04 15560   0.316E-02    0.151E-02
DAV:   6    -0.161000188578E+04    0.98829E-05   -0.97354E-05 14608   0.185E-02
   6 F= -.16100019E+04 E0= -.16100008E+04  d E =-.317641E-02
       N       E                     dE             d eps       ncg     rms          rms(c)
DAV:   1    -0.161000247826E+04   -0.58260E-03   -0.76992E-02 12086   0.361E-01    0.517E-02
DAV:   2    -0.161000250067E+04   -0.22407E-04   -0.85898E-04 16616   0.464E-02    0.349E-02
DAV:   3    -0.161000247319E+04    0.27476E-04   -0.27889E-04 18102   0.289E-02    0.258E-02
DAV:   4    -0.161000246834E+04    0.48550E-05   -0.80276E-05 14424   0.144E-02    0.118E-02
DAV:   5    -0.161000247571E+04   -0.73712E-05   -0.28840E-05  8688   0.104E-02
   7 F= -.16100025E+04 E0= -.16100013E+04  d E =-.589928E-03
       N       E                     dE             d eps       ncg     rms          rms(c)
DAV:   1    -0.161000283456E+04   -0.36622E-03   -0.12237E-02 12112   0.151E-01    0.333E-02
DAV:   2    -0.161000277135E+04    0.63214E-04   -0.19083E-04 17040   0.199E-02    0.178E-02
DAV:   3    -0.161000275356E+04    0.17782E-04   -0.63216E-05 12472   0.137E-02    0.131E-02
DAV:   4    -0.161000273424E+04    0.19323E-04   -0.21895E-05  8768   0.100E-02    0.632E-03
DAV:   5    -0.161000272373E+04    0.10507E-04   -0.10539E-05  6552   0.619E-03    0.190E-03
DAV:   6    -0.161000272297E+04    0.76684E-06   -0.32147E-06  6448   0.403E-03
   8 F= -.16100027E+04 E0= -.16100016E+04  d E =-.247260E-03
       N       E                     dE             d eps       ncg     rms          rms(c)
DAV:   1    -0.161000308736E+04   -0.36363E-03   -0.40103E-02 12016   0.256E-01    0.258E-02
DAV:   2    -0.161000311727E+04   -0.29914E-04   -0.36238E-04 17496   0.275E-02    0.213E-02
DAV:   3    -0.161000310520E+04    0.12073E-04   -0.58132E-05 11962   0.145E-02    0.160E-02
DAV:   4    -0.161000310404E+04    0.11595E-05   -0.33240E-05  8408   0.870E-03    0.324E-03
DAV:   5    -0.161000310414E+04   -0.99725E-07   -0.58144E-06  6608   0.558E-03
   9 F= -.16100031E+04 E0= -.16100020E+04  d E =-.381174E-03
       N       E                     dE             d eps       ncg     rms          rms(c)
DAV:   1    -0.161000349637E+04   -0.39233E-03   -0.64576E-02 11994   0.325E-01    0.347E-02
DAV:   2    -0.161000351307E+04   -0.16699E-04   -0.60046E-04 17448   0.347E-02    0.270E-02
DAV:   3    -0.161000349173E+04    0.21337E-04   -0.11307E-04 15508   0.186E-02    0.203E-02
DAV:   4    -0.161000346985E+04    0.21877E-04   -0.35399E-05  9200   0.958E-03    0.741E-03
DAV:   5    -0.161000346392E+04    0.59335E-05   -0.11549E-05  6860   0.693E-03
  10 F= -.16100035E+04 E0= -.16100024E+04  d E =-.359777E-03
       N       E                     dE             d eps       ncg     rms          rms(c)
DAV:   1    -0.161000347203E+04   -0.21758E-05   -0.14689E-03 12096   0.599E-02    0.199E-02
DAV:   2    -0.161000347178E+04    0.24320E-06   -0.33408E-05  7608   0.106E-02    0.986E-03
DAV:   3    -0.161000347544E+04   -0.36533E-05   -0.16300E-05  6992   0.948E-03    0.723E-03
DAV:   4    -0.161000348007E+04   -0.46307E-05   -0.81236E-06  6368   0.670E-03    0.254E-03
DAV:   5    -0.161000348419E+04   -0.41170E-05   -0.37966E-06  6256   0.345E-03
  11 F= -.16100035E+04 E0= -.16100023E+04  d E =-.202671E-04
       N       E                     dE             d eps       ncg     rms          rms(c)
DAV:   1    -0.161000371633E+04   -0.23627E-03   -0.25645E-02 12030   0.204E-01    0.202E-02
DAV:   2    -0.161000372300E+04   -0.66640E-05   -0.20871E-04 17136   0.195E-02    0.154E-02
DAV:   3    -0.161000371778E+04    0.52184E-05   -0.17413E-05  8354   0.828E-03    0.120E-02
DAV:   4    -0.161000370970E+04    0.80772E-05   -0.14962E-05  6632   0.681E-03    0.298E-03
DAV:   5    -0.161000370870E+04    0.10008E-05   -0.43797E-06  6244   0.477E-03
  12 F= -.16100037E+04 E0= -.16100026E+04  d E =-.224516E-03
       N       E                     dE             d eps       ncg     rms          rms(c)
DAV:   1    -0.161000395260E+04   -0.24290E-03   -0.48091E-02 11972   0.280E-01    0.268E-02
DAV:   2    -0.161000398238E+04   -0.29776E-04   -0.39666E-04 17376   0.261E-02    0.205E-02
DAV:   3    -0.161000397907E+04    0.33036E-05   -0.26427E-05  8972   0.986E-03    0.145E-02
DAV:   4    -0.161000397831E+04    0.76833E-06   -0.24880E-05  7960   0.940E-03    0.280E-03
DAV:   5    -0.161000397815E+04    0.15921E-06   -0.53064E-06  6392   0.543E-03
  13 F= -.16100040E+04 E0= -.16100028E+04  d E =-.269445E-03
       N       E                     dE             d eps       ncg     rms          rms(c)
DAV:   1    -0.161000398132E+04   -0.30168E-05   -0.11302E-03 12044   0.504E-02    0.151E-02
DAV:   2    -0.161000395690E+04    0.24428E-04   -0.18027E-05  6240   0.740E-03    0.729E-03
DAV:   3    -0.161000394832E+04    0.85731E-05   -0.88527E-06  6214   0.615E-03    0.457E-03
DAV:   4    -0.161000394259E+04    0.57294E-05   -0.40079E-06  6240   0.482E-03    0.189E-03
DAV:   5    -0.161000393954E+04    0.30526E-05   -0.18747E-06  6240   0.259E-03
  14 F= -.16100039E+04 E0= -.16100028E+04  d E =0.386071E-04
       N       E                     dE             d eps       ncg     rms          rms(c)
DAV:   1    -0.161000408029E+04   -0.13769E-03   -0.16826E-02 11984   0.166E-01    0.169E-02
DAV:   2    -0.161000409165E+04   -0.11363E-04   -0.13187E-04 16488   0.152E-02    0.123E-02
DAV:   3    -0.161000409215E+04   -0.50185E-06   -0.11091E-05  6928   0.563E-03    0.593E-03
DAV:   4    -0.161000409471E+04   -0.25621E-05   -0.55780E-06  6536   0.544E-03    0.201E-03
DAV:   5    -0.161000409481E+04   -0.98481E-07   -0.18957E-06  6238   0.361E-03
  15 F= -.16100041E+04 E0= -.16100030E+04  d E =-.155271E-03
       N       E                     dE             d eps       ncg     rms          rms(c)
DAV:   1    -0.161000421809E+04   -0.12337E-03   -0.17390E-02 11976   0.168E-01    0.163E-02
DAV:   2    -0.161000422365E+04   -0.55625E-05   -0.14533E-04 16888   0.156E-02    0.123E-02
DAV:   3    -0.161000421955E+04    0.40968E-05   -0.99829E-06  7328   0.574E-03    0.766E-03
DAV:   4    -0.161000421567E+04    0.38821E-05   -0.74883E-06  6640   0.571E-03    0.196E-03
DAV:   5    -0.161000421536E+04    0.30632E-06   -0.20774E-06  6240   0.356E-03
  16 F= -.16100042E+04 E0= -.16100031E+04  d E =-.120552E-03
       N       E                     dE             d eps       ncg     rms          rms(c)
DAV:   1    -0.161000425410E+04   -0.38430E-04   -0.32807E-03 12020   0.755E-02    0.122E-02
DAV:   2    -0.161000425936E+04   -0.52586E-05   -0.24746E-05  8056   0.814E-03    0.685E-03
DAV:   3    -0.161000426352E+04   -0.41597E-05   -0.96323E-06  6516   0.560E-03    0.428E-03
DAV:   4    -0.161000426663E+04   -0.31166E-05   -0.47577E-06  6240   0.446E-03    0.189E-03
DAV:   5    -0.161000426870E+04   -0.20680E-05   -0.25394E-06  6216   0.288E-03
  17 F= -.16100043E+04 E0= -.16100031E+04  d E =-.533391E-04
       N       E                     dE             d eps       ncg     rms          rms(c)
DAV:   1    -0.161000433457E+04   -0.67935E-04   -0.35581E-03 11980   0.775E-02    0.114E-02
DAV:   2    -0.161000432444E+04    0.10134E-04   -0.27895E-05  8736   0.841E-03    0.682E-03
DAV:   3    -0.161000432080E+04    0.36413E-05   -0.10083E-05  6380   0.571E-03    0.463E-03
DAV:   4    -0.161000431678E+04    0.40198E-05   -0.49094E-06  6216   0.439E-03    0.208E-03
DAV:   5    -0.161000431496E+04    0.18169E-05   -0.27412E-06  6192   0.295E-03
  18 F= -.16100043E+04 E0= -.16100032E+04  d E =-.462557E-04
       N       E                     dE             d eps       ncg     rms          rms(c)
DAV:   1    -0.161000436945E+04   -0.52679E-04   -0.57251E-03 11976   0.964E-02    0.969E-03
DAV:   2    -0.161000437376E+04   -0.43052E-05   -0.43989E-05 10856   0.926E-03    0.725E-03
DAV:   3    -0.161000437471E+04   -0.95001E-06   -0.91144E-06  6278   0.506E-03    0.361E-03
DAV:   4    -0.161000437591E+04   -0.11999E-05   -0.43666E-06  6192   0.413E-03    0.104E-03
DAV:   5    -0.161000437586E+04    0.44333E-07   -0.18816E-06  6190   0.261E-03
  19 F= -.16100044E+04 E0= -.16100032E+04  d E =-.609063E-04
       N       E                     dE             d eps       ncg     rms          rms(c)
DAV:   1    -0.161000443506E+04   -0.59147E-04   -0.69375E-03 11976   0.107E-01    0.114E-02
DAV:   2    -0.161000443230E+04    0.27522E-05   -0.58071E-05 12272   0.103E-02    0.811E-03
DAV:   3    -0.161000442940E+04    0.29019E-05   -0.93883E-06  6528   0.536E-03    0.527E-03
DAV:   4    -0.161000442598E+04    0.34229E-05   -0.39252E-06  6240   0.412E-03    0.198E-03
DAV:   5    -0.161000442484E+04    0.11366E-05   -0.18632E-06  6214   0.288E-03
  20 F= -.16100044E+04 E0= -.16100033E+04  d E =-.489780E-04
       N       E                     dE             d eps       ncg     rms          rms(c)
DAV:   1    -0.161000443382E+04   -0.78446E-05   -0.31070E-04 12040   0.247E-02    0.609E-03
DAV:   2    -0.161000443760E+04   -0.37763E-05   -0.44115E-06  6138   0.338E-03    0.304E-03
DAV:   3    -0.161000443984E+04   -0.22446E-05   -0.19961E-06  6136   0.274E-03    0.203E-03
DAV:   4    -0.161000444162E+04   -0.17715E-05   -0.97968E-07  6132   0.208E-03    0.833E-04
DAV:   5    -0.161000444279E+04   -0.11694E-05   -0.52304E-07  6132   0.126E-03
  21 F= -.16100044E+04 E0= -.16100033E+04  d E =-.179431E-04
       N       E                     dE             d eps       ncg     rms          rms(c)
DAV:   1    -0.161000448365E+04   -0.42032E-04   -0.40788E-03 11976   0.814E-02    0.805E-03
DAV:   2    -0.161000448297E+04    0.67656E-06   -0.22381E-05  8256   0.759E-03    0.582E-03
DAV:   3    -0.161000448187E+04    0.11021E-05   -0.76535E-06  6262   0.431E-03    0.304E-03
DAV:   4    -0.161000448093E+04    0.93949E-06   -0.41992E-06  6162   0.369E-03    0.843E-04
DAV:   5    -0.161000448110E+04   -0.17395E-06   -0.21317E-06  6162   0.261E-03
  22 F= -.16100045E+04 E0= -.16100033E+04  d E =-.383188E-04
       N       E                     dE             d eps       ncg     rms          rms(c)
DAV:   1    -0.161000452801E+04   -0.47081E-04   -0.11150E-02 11952   0.135E-01    0.137E-02
DAV:   2    -0.161000453800E+04   -0.99868E-05   -0.10028E-04 15720   0.129E-02    0.101E-02
DAV:   3    -0.161000453903E+04   -0.10331E-05   -0.87338E-06  6708   0.511E-03    0.547E-03
DAV:   4    -0.161000454111E+04   -0.20772E-05   -0.44803E-06  6240   0.473E-03    0.170E-03
DAV:   5    -0.161000454136E+04   -0.25601E-06   -0.15727E-06  6194   0.300E-03
  23 F= -.16100045E+04 E0= -.16100034E+04  d E =-.602597E-04
       N       E                     dE             d eps       ncg     rms          rms(c)
DAV:   1    -0.161000453362E+04    0.74850E-05   -0.14923E-03 11976   0.505E-02    0.776E-03
DAV:   2    -0.161000452606E+04    0.75677E-05   -0.92040E-06  6108   0.514E-03    0.452E-03
DAV:   3    -0.161000452275E+04    0.33046E-05   -0.33807E-06  6100   0.339E-03    0.287E-03
DAV:   4    -0.161000451999E+04    0.27600E-05   -0.16826E-06  6108   0.272E-03    0.117E-03
DAV:   5    -0.161000451885E+04    0.11408E-05   -0.81982E-07  6108   0.169E-03
  24 F= -.16100045E+04 E0= -.16100034E+04  d E =0.225141E-04
       N       E                     dE             d eps       ncg     rms          rms(c)
DAV:   1    -0.161000455029E+04   -0.30302E-04   -0.41084E-03 11968   0.818E-02    0.753E-03
DAV:   2    -0.161000455109E+04   -0.80184E-06   -0.19702E-05  6308   0.726E-03    0.554E-03
DAV:   3    -0.161000455081E+04    0.28594E-06   -0.64891E-06  6120   0.393E-03    0.195E-03
DAV:   4    -0.161000455097E+04   -0.16264E-06   -0.30893E-06  6132   0.327E-03    0.932E-04
DAV:   5    -0.161000455104E+04   -0.72583E-07   -0.15414E-06  6130   0.224E-03
  25 F= -.16100046E+04 E0= -.16100034E+04  d E =-.321940E-04
       N       E                     dE             d eps       ncg     rms          rms(c)
DAV:   1    -0.161000462302E+04   -0.72051E-04   -0.54489E-02 11936   0.298E-01    0.280E-02
DAV:   2    -0.161000465149E+04   -0.28470E-04   -0.45125E-04 17424   0.274E-02    0.216E-02
DAV:   3    -0.161000464108E+04    0.10408E-04   -0.40485E-05 10516   0.999E-03    0.828E-03
DAV:   4    -0.161000463971E+04    0.13794E-05   -0.14759E-05  8200   0.864E-03    0.392E-03
DAV:   5    -0.161000463884E+04    0.86988E-06   -0.38861E-06  6556   0.519E-03
  26 F= -.16100046E+04 E0= -.16100035E+04  d E =-.877913E-04
       N       E                     dE             d eps       ncg     rms          rms(c)
DAV:   1    -0.161000465794E+04   -0.18234E-04   -0.11483E-02 11952   0.137E-01    0.126E-02
DAV:   2    -0.161000466399E+04   -0.60535E-05   -0.95951E-05 15256   0.126E-02    0.978E-03
DAV:   3    -0.161000466214E+04    0.18517E-05   -0.88022E-06  6692   0.527E-03    0.517E-03
DAV:   4    -0.161000466127E+04    0.86775E-06   -0.50496E-06  6288   0.475E-03    0.173E-03
DAV:   5    -0.161000466121E+04    0.65977E-07   -0.14278E-06  6240   0.288E-03
  27 F= -.16100047E+04 E0= -.16100035E+04  d E =-.223718E-04
       N       E                     dE             d eps       ncg     rms          rms(c)
DAV:   1    -0.161000466560E+04   -0.43260E-05   -0.60484E-03 11952   0.993E-02    0.985E-03
DAV:   2    -0.161000467096E+04   -0.53623E-05   -0.42011E-05 10456   0.932E-03    0.715E-03
DAV:   3    -0.161000467275E+04   -0.17862E-05   -0.93906E-06  6482   0.506E-03    0.369E-03
DAV:   4    -0.161000467468E+04   -0.19294E-05   -0.42934E-06  6240   0.410E-03    0.106E-03
DAV:   5    -0.161000467489E+04   -0.21770E-06   -0.20724E-06  6230   0.279E-03
  28 F= -.16100047E+04 E0= -.16100035E+04  d E =-.136876E-04
       N       E                     dE             d eps       ncg     rms          rms(c)
DAV:   1    -0.161000467534E+04   -0.66533E-06   -0.20389E-03 11956   0.581E-02    0.665E-03
DAV:   2    -0.161000467113E+04    0.42096E-05   -0.97728E-06  6068   0.530E-03    0.436E-03
DAV:   3    -0.161000466871E+04    0.24226E-05   -0.30063E-06  6048   0.295E-03    0.254E-03
DAV:   4    -0.161000466672E+04    0.19867E-05   -0.15115E-06  6060   0.244E-03    0.887E-04
DAV:   5    -0.161000466633E+04    0.39739E-06   -0.69758E-07  6060   0.159E-03
  29 F= -.16100047E+04 E0= -.16100035E+04  d E =0.856862E-05
       N       E                     dE             d eps       ncg     rms          rms(c)
DAV:   1    -0.161000466962E+04   -0.28985E-05   -0.61961E-04 11964   0.318E-02    0.286E-03
DAV:   2    -0.161000466980E+04   -0.17959E-06   -0.26832E-06  6060   0.271E-03    0.210E-03
DAV:   3    -0.161000466985E+04   -0.43776E-07   -0.84877E-07  6046   0.139E-03    0.574E-04
DAV:   4    -0.161000466991E+04   -0.61540E-07   -0.33954E-07  6060   0.107E-03    0.359E-04
DAV:   5    -0.161000466990E+04    0.10367E-07   -0.16612E-07  6060   0.727E-04
  30 F= -.16100047E+04 E0= -.16100035E+04  d E =-.357042E-05
       N       E                     dE             d eps       ncg     rms          rms(c)
DAV:   1    -0.161000467302E+04   -0.31130E-05   -0.23410E-03 11952   0.617E-02    0.587E-03
DAV:   2    -0.161000467456E+04   -0.15379E-05   -0.12537E-05  6084   0.572E-03    0.429E-03
DAV:   3    -0.161000467543E+04   -0.87357E-06   -0.46736E-06  6046   0.325E-03    0.128E-03
DAV:   4    -0.161000467596E+04   -0.53268E-06   -0.21834E-06  6060   0.266E-03    0.659E-04
DAV:   5    -0.161000467592E+04    0.47891E-07   -0.11686E-06  6054   0.191E-03
  31 F= -.16100047E+04 E0= -.16100035E+04  d E =-.601968E-05
