       N       E                     dE             d eps       ncg     rms          rms(c)
DAV:   1     0.194205979895E+04    0.19421E+04   -0.27682E+05 11172   0.142E+03
DAV:   2    -0.118647669881E+04   -0.31285E+04   -0.30078E+04 12910   0.266E+02
DAV:   3    -0.157742600616E+04   -0.39095E+03   -0.35521E+03 17544   0.822E+01
DAV:   4    -0.160239333878E+04   -0.24967E+02   -0.22544E+02 15832   0.161E+01
DAV:   5    -0.160354428241E+04   -0.11509E+01   -0.11215E+01 16712   0.447E+00    0.379E+01
DAV:   6    -0.156814297542E+04    0.35401E+02   -0.10643E+02 17504   0.145E+01    0.224E+01
DAV:   7    -0.155837960228E+04    0.97634E+01   -0.92536E+01 17672   0.156E+01    0.179E+01
DAV:   8    -0.154793905528E+04    0.10441E+02   -0.63082E+01 16432   0.116E+01    0.111E+01
DAV:   9    -0.154137211135E+04    0.65669E+01   -0.27105E+01 16248   0.823E+00    0.329E+00
DAV:  10    -0.154118660115E+04    0.18551E+00   -0.52485E+00 15952   0.315E+00    0.139E+00
DAV:  11    -0.154119803945E+04   -0.11438E-01   -0.61501E-01 15064   0.112E+00    0.986E-01
DAV:  12    -0.154118391471E+04    0.14125E-01   -0.16755E-01 15552   0.610E-01    0.668E-01
DAV:  13    -0.154117084073E+04    0.13074E-01   -0.69056E-02 14888   0.416E-01    0.409E-01
DAV:  14    -0.154116393329E+04    0.69074E-02   -0.22914E-02 14376   0.220E-01    0.182E-01
DAV:  15    -0.154116329606E+04    0.63722E-03   -0.77759E-03 16424   0.130E-01    0.940E-02
DAV:  16    -0.154116313190E+04    0.16416E-03   -0.24308E-03 15840   0.772E-02    0.515E-02
DAV:  17    -0.154116309715E+04    0.34756E-04   -0.73908E-04 14264   0.398E-02    0.283E-02
DAV:  18    -0.154116308508E+04    0.12069E-04   -0.19154E-04 14608   0.215E-02    0.170E-02
DAV:  19    -0.154116307557E+04    0.95121E-05   -0.56773E-05 10552   0.135E-02
   1 F= -.15411631E+04 E0= -.15411636E+04  d E =-.154116E+04
       N       E                     dE             d eps       ncg     rms          rms(c)
DAV:   1    -0.154450474598E+04   -0.33417E+01   -0.26516E+03 11172   0.797E+01    0.275E+01
DAV:   2    -0.151644576608E+04    0.28059E+02   -0.16426E+02 18456   0.182E+01    0.184E+01
DAV:   3    -0.150937643632E+04    0.70693E+01   -0.95968E+01 18488   0.139E+01    0.149E+01
DAV:   4    -0.150135207791E+04    0.80244E+01   -0.45065E+01 19928   0.910E+00    0.103E+01
DAV:   5    -0.149697158508E+04    0.43805E+01   -0.30617E+01 17992   0.656E+00    0.431E+00
DAV:   6    -0.149650273532E+04    0.46885E+00   -0.74276E+00 17544   0.336E+00    0.284E+00
DAV:   7    -0.149636794111E+04    0.13479E+00   -0.12008E+00 15984   0.155E+00    0.212E+00
DAV:   8    -0.149629179540E+04    0.76146E-01   -0.43346E-01 18008   0.732E-01    0.114E+00
DAV:   9    -0.149627876876E+04    0.13027E-01   -0.29070E-01 17832   0.517E-01    0.521E-01
DAV:  10    -0.149627862556E+04    0.14320E-03   -0.67360E-02 18288   0.339E-01    0.411E-01
DAV:  11    -0.149627277183E+04    0.58537E-02   -0.25338E-02 18368   0.220E-01    0.207E-01
DAV:  12    -0.149627239464E+04    0.37719E-03   -0.10736E-02 18360   0.116E-01    0.112E-01
DAV:  13    -0.149627300095E+04   -0.60631E-03   -0.29530E-03 17408   0.665E-02    0.756E-02
DAV:  14    -0.149627319021E+04   -0.18927E-03   -0.14039E-03 17088   0.527E-02    0.597E-02
DAV:  15    -0.149627316468E+04    0.25536E-04   -0.76261E-04 17024   0.370E-02    0.290E-02
DAV:  16    -0.149627316090E+04    0.37791E-05   -0.24602E-04 17616   0.186E-02    0.144E-02
DAV:  17    -0.149627316470E+04   -0.38056E-05   -0.47381E-05  9272   0.977E-03
   2 F= -.14962732E+04 E0= -.14962769E+04  d E =0.448899E+02
       N       E                     dE             d eps       ncg     rms          rms(c)
DAV:   1    -0.157430984743E+04   -0.78037E+02   -0.13417E+03 11172   0.628E+01    0.193E+01
DAV:   2    -0.155944609641E+04    0.14864E+02   -0.48315E+01 17176   0.113E+01    0.103E+01
DAV:   3    -0.155674464034E+04    0.27015E+01   -0.31614E+01 18080   0.852E+00    0.845E+00
DAV:   4    -0.155378105926E+04    0.29636E+01   -0.14631E+01 17728   0.582E+00    0.542E+00
DAV:   5    -0.155229947892E+04    0.14816E+01   -0.80198E+00 16280   0.417E+00    0.185E+00
DAV:   6    -0.155220242776E+04    0.97051E-01   -0.18175E+00 15360   0.189E+00    0.914E-01
DAV:   7    -0.155221431971E+04   -0.11892E-01   -0.22958E-01 14384   0.709E-01    0.713E-01
DAV:   8    -0.155221541969E+04   -0.11000E-02   -0.53841E-02 15784   0.312E-01    0.404E-01
DAV:   9    -0.155222780674E+04   -0.12387E-01   -0.63713E-02 16456   0.286E-01    0.278E-01
DAV:  10    -0.155222688710E+04    0.91965E-03   -0.12282E-02 15368   0.186E-01    0.152E-01
DAV:  11    -0.155222652593E+04    0.36117E-03   -0.41991E-03 16864   0.879E-02    0.785E-02
DAV:  12    -0.155222672223E+04   -0.19631E-03   -0.19770E-03 16192   0.582E-02    0.478E-02
DAV:  13    -0.155222701546E+04   -0.29323E-03   -0.68155E-04 13896   0.364E-02    0.277E-02
DAV:  14    -0.155222703062E+04   -0.15157E-04   -0.15301E-04 13328   0.178E-02    0.156E-02
DAV:  15    -0.155222702536E+04    0.52596E-05   -0.29633E-05  7272   0.905E-03
   3 F= -.15522270E+04 E0= -.15522505E+04  d E =-.559539E+02
       N       E                     dE             d eps       ncg     rms          rms(c)
DAV:   1    -0.155265840261E+04   -0.43137E+00   -0.25147E+01 11172   0.719E+00    0.128E+00
DAV:   2    -0.155261790997E+04    0.40493E-01   -0.41220E-01 16104   0.776E-01    0.738E-01
DAV:   3    -0.155261267144E+04    0.52385E-02   -0.13153E-01 18352   0.535E-01    0.644E-01
DAV:   4    -0.155259250983E+04    0.20162E-01   -0.67858E-02 17744   0.413E-01    0.334E-01
DAV:   5    -0.155258783614E+04    0.46737E-02   -0.32766E-02 15328   0.260E-01    0.119E-01
DAV:   6    -0.155258769128E+04    0.14486E-03   -0.62374E-03 14744   0.119E-01    0.778E-02
DAV:   7    -0.155258765978E+04    0.31501E-04   -0.12904E-03 15736   0.573E-02    0.576E-02
DAV:   8    -0.155258761804E+04    0.41734E-04   -0.55434E-04 16032   0.331E-02    0.318E-02
DAV:   9    -0.155258764497E+04   -0.26925E-04   -0.24023E-04 14896   0.203E-02    0.199E-02
DAV:  10    -0.155258765596E+04   -0.10987E-04   -0.65250E-05 12160   0.137E-02    0.126E-02
DAV:  11    -0.155258765621E+04   -0.25310E-06   -0.21873E-05  7352   0.907E-03
   4 F= -.15525877E+04 E0= -.15526080E+04  d E =-.360631E+00
       N       E                     dE             d eps       ncg     rms          rms(c)
DAV:   1    -0.155264413705E+04   -0.56481E-01   -0.40095E+00 11172   0.272E+00    0.442E-01
DAV:   2    -0.155264928455E+04   -0.51475E-02   -0.10780E-01 18048   0.493E-01    0.410E-01
DAV:   3    -0.155264018659E+04    0.90980E-02   -0.43015E-02 18064   0.330E-01    0.220E-01
DAV:   4    -0.155263841889E+04    0.17677E-02   -0.87280E-03 16600   0.132E-01    0.143E-01
DAV:   5    -0.155263767240E+04    0.74649E-03   -0.39007E-03 15240   0.919E-02    0.755E-02
DAV:   6    -0.155263744435E+04    0.22805E-03   -0.15173E-03 14768   0.587E-02    0.378E-02
DAV:   7    -0.155263740719E+04    0.37163E-04   -0.34085E-04 15488   0.306E-02    0.257E-02
DAV:   8    -0.155263740089E+04    0.63034E-05   -0.97936E-05 12968   0.142E-02
   5 F= -.15526374E+04 E0= -.15526581E+04  d E =-.497447E-01
       N       E                     dE             d eps       ncg     rms          rms(c)
DAV:   1    -0.155265735004E+04   -0.19943E-01   -0.21823E+00 11172   0.197E+00    0.228E-01
DAV:   2    -0.155266139974E+04   -0.40497E-02   -0.39628E-02 17344   0.280E-01    0.250E-01
DAV:   3    -0.155265814157E+04    0.32582E-02   -0.12818E-02 17848   0.182E-01    0.127E-01
DAV:   4    -0.155265784603E+04    0.29553E-03   -0.23964E-03 16128   0.679E-02    0.880E-02
DAV:   5    -0.155265766766E+04    0.17837E-03   -0.13326E-03 14736   0.521E-02    0.382E-02
DAV:   6    -0.155265765876E+04    0.88961E-05   -0.44564E-04 15504   0.332E-02    0.228E-02
DAV:   7    -0.155265763748E+04    0.21283E-04   -0.13662E-04 14520   0.193E-02    0.121E-02
DAV:   8    -0.155265762967E+04    0.78140E-05   -0.26680E-05  7112   0.861E-03
   6 F= -.15526576E+04 E0= -.15526779E+04  d E =-.202288E-01
       N       E                     dE             d eps       ncg     rms          rms(c)
DAV:   1    -0.155266634045E+04   -0.87030E-02   -0.53906E-01 11263   0.102E+00    0.199E-01
DAV:   2    -0.155266661129E+04   -0.27083E-03   -0.16100E-02 18184   0.203E-01    0.178E-01
DAV:   3    -0.155266487658E+04    0.17347E-02   -0.79092E-03 18112   0.141E-01    0.961E-02
DAV:   4    -0.155266447628E+04    0.40030E-03   -0.17188E-03 15952   0.582E-02    0.606E-02
DAV:   5    -0.155266427780E+04    0.19848E-03   -0.81160E-04 15016   0.434E-02    0.298E-02
DAV:   6    -0.155266422248E+04    0.55316E-04   -0.27643E-04 15000   0.259E-02    0.164E-02
DAV:   7    -0.155266421253E+04    0.99512E-05   -0.59934E-05 12080   0.134E-02
   7 F= -.15526642E+04 E0= -.15526846E+04  d E =-.658287E-02
       N       E                     dE             d eps       ncg     rms          rms(c)
DAV:   1    -0.155266984469E+04   -0.56222E-02   -0.37796E-01 11228   0.838E-01    0.114E-01
DAV:   2    -0.155267026464E+04   -0.41996E-03   -0.58954E-03 17072   0.106E-01    0.104E-01
DAV:   3    -0.155266980166E+04    0.46298E-03   -0.20512E-03 17984   0.730E-02    0.614E-02
DAV:   4    -0.155266972948E+04    0.72177E-04   -0.55089E-04 15424   0.331E-02    0.336E-02
DAV:   5    -0.155266972013E+04    0.93503E-05   -0.27836E-04 14800   0.246E-02    0.140E-02
DAV:   6    -0.155266972128E+04   -0.11443E-05   -0.68597E-05 12664   0.142E-02
   8 F= -.15526697E+04 E0= -.15526899E+04  d E =-.550874E-02
       N       E                     dE             d eps       ncg     rms          rms(c)
DAV:   1    -0.155267298441E+04   -0.32643E-02   -0.28368E-01 11235   0.711E-01    0.949E-02
DAV:   2    -0.155267361343E+04   -0.62903E-03   -0.61938E-03 18136   0.123E-01    0.111E-01
DAV:   3    -0.155267287293E+04    0.74050E-03   -0.26418E-03 17985   0.821E-02    0.495E-02
DAV:   4    -0.155267279827E+04    0.74661E-04   -0.40894E-04 15912   0.276E-02    0.344E-02
DAV:   5    -0.155267274810E+04    0.50173E-04   -0.20181E-04 14880   0.210E-02    0.174E-02
DAV:   6    -0.155267273212E+04    0.15975E-04   -0.75008E-05 12944   0.143E-02    0.987E-03
DAV:   7    -0.155267272754E+04    0.45784E-05   -0.19024E-05  6960   0.848E-03
   9 F= -.15526727E+04 E0= -.15526929E+04  d E =-.300626E-02
       N       E                     dE             d eps       ncg     rms          rms(c)
DAV:   1    -0.155267426062E+04   -0.15285E-02   -0.14619E-01 11256   0.514E-01    0.609E-02
DAV:   2    -0.155267450696E+04   -0.24634E-03   -0.21384E-03 17208   0.664E-02    0.644E-02
DAV:   3    -0.155267430415E+04    0.20281E-03   -0.76222E-04 17873   0.449E-02    0.340E-02
DAV:   4    -0.155267429786E+04    0.62899E-05   -0.16342E-04 14752   0.179E-02    0.190E-02
DAV:   5    -0.155267430124E+04   -0.33740E-05   -0.76225E-05 12848   0.134E-02
  10 F= -.15526743E+04 E0= -.15526944E+04  d E =-.157369E-02
       N       E                     dE             d eps       ncg     rms          rms(c)
DAV:   1    -0.155267529069E+04   -0.99283E-03   -0.47516E-02 11312   0.300E-01    0.523E-02
DAV:   2    -0.155267529660E+04   -0.59101E-05   -0.10952E-03 18112   0.523E-02    0.480E-02
DAV:   3    -0.155267516771E+04    0.12889E-03   -0.52250E-04 18056   0.368E-02    0.259E-02
DAV:   4    -0.155267512955E+04    0.38154E-04   -0.11334E-04 14592   0.148E-02    0.161E-02
DAV:   5    -0.155267510248E+04    0.27077E-04   -0.49603E-05  9864   0.115E-02    0.702E-03
DAV:   6    -0.155267509563E+04    0.68470E-05   -0.13372E-05  6288   0.700E-03
  11 F= -.15526751E+04 E0= -.15526952E+04  d E =-.794392E-03
       N       E                     dE             d eps       ncg     rms          rms(c)
DAV:   1    -0.155267588178E+04   -0.77930E-03   -0.71256E-02 11242   0.354E-01    0.367E-02
DAV:   2    -0.155267601101E+04   -0.12924E-03   -0.96422E-04 17336   0.447E-02    0.427E-02
DAV:   3    -0.155267591864E+04    0.92370E-04   -0.32277E-04 17658   0.294E-02    0.220E-02
DAV:   4    -0.155267591778E+04    0.85992E-06   -0.57403E-05 10912   0.110E-02    0.127E-02
DAV:   5    -0.155267592015E+04   -0.23689E-05   -0.23853E-05  7000   0.898E-03
  12 F= -.15526759E+04 E0= -.15526960E+04  d E =-.824524E-03
       N       E                     dE             d eps       ncg     rms          rms(c)
DAV:   1    -0.155267648869E+04   -0.57091E-03   -0.50723E-02 11298   0.300E-01    0.356E-02
DAV:   2    -0.155267654805E+04   -0.59361E-04   -0.81451E-04 17600   0.426E-02    0.385E-02
DAV:   3    -0.155267646540E+04    0.82649E-04   -0.30187E-04 17472   0.285E-02    0.196E-02
DAV:   4    -0.155267644903E+04    0.16374E-04   -0.46970E-05  9528   0.102E-02    0.128E-02
DAV:   5    -0.155267643552E+04    0.13507E-04   -0.23153E-05  6520   0.837E-03    0.532E-03
DAV:   6    -0.155267643205E+04    0.34763E-05   -0.71229E-06  6216   0.555E-03
  13 F= -.15526764E+04 E0= -.15526965E+04  d E =-.511894E-03
       N       E                     dE             d eps       ncg     rms          rms(c)
DAV:   1    -0.155267671276E+04   -0.27723E-03   -0.17227E-02 11312   0.177E-01    0.225E-02
DAV:   2    -0.155267673264E+04   -0.19883E-04   -0.18882E-04 16328   0.179E-02    0.168E-02
DAV:   3    -0.155267672768E+04    0.49625E-05   -0.35573E-05  8961   0.111E-02    0.122E-02
DAV:   4    -0.155267673389E+04   -0.62150E-05   -0.17751E-05  6464   0.746E-03    0.539E-03
DAV:   5    -0.155267673913E+04   -0.52358E-05   -0.72994E-06  6216   0.527E-03
  14 F= -.15526767E+04 E0= -.15526968E+04  d E =-.307081E-03
       N       E                     dE             d eps       ncg     rms          rms(c)
DAV:   1    -0.155267706526E+04   -0.33137E-03   -0.24301E-02 11284   0.207E-01    0.231E-02
DAV:   2    -0.155267708610E+04   -0.20840E-04   -0.32418E-04 17376   0.269E-02    0.244E-02
DAV:   3    -0.155267705397E+04    0.32128E-04   -0.11014E-04 14872   0.178E-02    0.132E-02
DAV:   4    -0.155267704545E+04    0.85237E-05   -0.18974E-05  6584   0.737E-03    0.827E-03
DAV:   5    -0.155267703771E+04    0.77392E-05   -0.10872E-05  6208   0.617E-03
  15 F= -.15526770E+04 E0= -.15526971E+04  d E =-.298579E-03
       N       E                     dE             d eps       ncg     rms          rms(c)
DAV:   1    -0.155267731005E+04   -0.26461E-03   -0.28050E-02 11270   0.221E-01    0.203E-02
DAV:   2    -0.155267734002E+04   -0.29970E-04   -0.27715E-04 16488   0.218E-02    0.190E-02
DAV:   3    -0.155267732865E+04    0.11367E-04   -0.42470E-05  9490   0.123E-02    0.130E-02
DAV:   4    -0.155267733063E+04   -0.19750E-05   -0.20793E-05  6288   0.722E-03    0.540E-03
DAV:   5    -0.155267733293E+04   -0.22970E-05   -0.78755E-06  6200   0.573E-03
  16 F= -.15526773E+04 E0= -.15526974E+04  d E =-.295219E-03
       N       E                     dE             d eps       ncg     rms          rms(c)
DAV:   1    -0.155267750513E+04   -0.17450E-03   -0.10767E-02 11298   0.139E-01    0.174E-02
DAV:   2    -0.155267749912E+04    0.60040E-05   -0.13770E-04 15728   0.172E-02    0.148E-02
DAV:   3    -0.155267748728E+04    0.11847E-04   -0.37647E-05  9017   0.120E-02    0.924E-03
DAV:   4    -0.155267748050E+04    0.67733E-05   -0.13374E-05  6192   0.641E-03    0.565E-03
DAV:   5    -0.155267747389E+04    0.66106E-05   -0.73706E-06  6040   0.514E-03
  17 F= -.15526775E+04 E0= -.15526975E+04  d E =-.140965E-03
       N       E                     dE             d eps       ncg     rms          rms(c)
DAV:   1    -0.155267761503E+04   -0.13452E-03   -0.96174E-03 11284   0.130E-01    0.135E-02
DAV:   2    -0.155267762698E+04   -0.11949E-04   -0.86144E-05 13824   0.122E-02    0.106E-02
DAV:   3    -0.155267762599E+04    0.98395E-06   -0.13118E-05  6803   0.689E-03    0.806E-03
DAV:   4    -0.155267763086E+04   -0.48720E-05   -0.82655E-06  6040   0.465E-03    0.270E-03
DAV:   5    -0.155267763276E+04   -0.18950E-05   -0.30172E-06  5896   0.333E-03
  18 F= -.15526776E+04 E0= -.15526977E+04  d E =-.158867E-03
       N       E                     dE             d eps       ncg     rms          rms(c)
DAV:   1    -0.155267780025E+04   -0.16939E-03   -0.15618E-02 11270   0.165E-01    0.153E-02
DAV:   2    -0.155267780604E+04   -0.57842E-05   -0.14971E-04 15752   0.159E-02    0.132E-02
DAV:   3    -0.155267780017E+04    0.58634E-05   -0.18331E-05  7273   0.883E-03    0.970E-03
DAV:   4    -0.155267779564E+04    0.45317E-05   -0.10989E-05  6120   0.543E-03    0.508E-03
DAV:   5    -0.155267779267E+04    0.29731E-05   -0.57220E-06  5976   0.474E-03
  19 F= -.15526778E+04 E0= -.15526978E+04  d E =-.159909E-03
       N       E                     dE             d eps       ncg     rms          rms(c)
DAV:   1    -0.155267790143E+04   -0.10579E-03   -0.92503E-03 11270   0.128E-01    0.122E-02
DAV:   2    -0.155267791280E+04   -0.11375E-04   -0.81880E-05 13728   0.117E-02    0.968E-03
DAV:   3    -0.155267791231E+04    0.48946E-06   -0.11119E-05  6586   0.637E-03    0.743E-03
DAV:   4    -0.155267791638E+04   -0.40656E-05   -0.66203E-06  5928   0.427E-03    0.262E-03
DAV:   5    -0.155267791833E+04   -0.19512E-05   -0.26233E-06  5880   0.314E-03
  20 F= -.15526779E+04 E0= -.15526979E+04  d E =-.125664E-03
       N       E                     dE             d eps       ncg     rms          rms(c)
DAV:   1    -0.155267800636E+04   -0.89979E-04   -0.46918E-03 11284   0.912E-02    0.106E-02
DAV:   2    -0.155267799937E+04    0.69893E-05   -0.35563E-05  8728   0.947E-03    0.746E-03
DAV:   3    -0.155267799717E+04    0.22003E-05   -0.12171E-05  6457   0.684E-03    0.562E-03
DAV:   4    -0.155267799295E+04    0.42222E-05   -0.56437E-06  5880   0.423E-03    0.300E-03
DAV:   5    -0.155267799025E+04    0.26941E-05   -0.33921E-06  5880   0.321E-03
  21 F= -.15526780E+04 E0= -.15526980E+04  d E =-.719223E-04
       N       E                     dE             d eps       ncg     rms          rms(c)
DAV:   1    -0.155267808240E+04   -0.89456E-04   -0.81252E-03 11270   0.119E-01    0.109E-02
DAV:   2    -0.155267809092E+04   -0.85180E-05   -0.76488E-05 13216   0.105E-02    0.857E-03
DAV:   3    -0.155267809117E+04   -0.25212E-06   -0.72954E-06  6176   0.510E-03    0.682E-03
DAV:   4    -0.155267809344E+04   -0.22666E-05   -0.50973E-06  5880   0.393E-03    0.201E-03
DAV:   5    -0.155267809429E+04   -0.84709E-06   -0.18525E-06  5880   0.273E-03
  22 F= -.15526781E+04 E0= -.15526981E+04  d E =-.104034E-03
       N       E                     dE             d eps       ncg     rms          rms(c)
DAV:   1    -0.155267817223E+04   -0.78791E-04   -0.55734E-03 11270   0.986E-02    0.931E-03
DAV:   2    -0.155267817006E+04    0.21743E-05   -0.42068E-05  9712   0.914E-03    0.713E-03
DAV:   3    -0.155267816882E+04    0.12419E-05   -0.10088E-05  6154   0.569E-03    0.548E-03
DAV:   4    -0.155267816583E+04    0.29805E-05   -0.47793E-06  5880   0.365E-03    0.273E-03
DAV:   5    -0.155267816409E+04    0.17442E-05   -0.27123E-06  5880   0.293E-03
  23 F= -.15526782E+04 E0= -.15526982E+04  d E =-.698030E-04
       N       E                     dE             d eps       ncg     rms          rms(c)
DAV:   1    -0.155267822764E+04   -0.61806E-04   -0.53167E-03 11270   0.963E-02    0.912E-03
DAV:   2    -0.155267823396E+04   -0.63208E-05   -0.41975E-05  9808   0.848E-03    0.678E-03
DAV:   3    -0.155267823526E+04   -0.13012E-05   -0.88872E-06  6033   0.504E-03    0.524E-03
DAV:   4    -0.155267823801E+04   -0.27502E-05   -0.48286E-06  5880   0.376E-03    0.183E-03
DAV:   5    -0.155267823921E+04   -0.11939E-05   -0.23469E-06  5873   0.267E-03
  24 F= -.15526782E+04 E0= -.15526982E+04  d E =-.751161E-04
       N       E                     dE             d eps       ncg     rms          rms(c)
DAV:   1    -0.155267829329E+04   -0.55281E-04   -0.31466E-03 11270   0.742E-02    0.782E-03
DAV:   2    -0.155267828900E+04    0.42968E-05   -0.20879E-05  7016   0.722E-03    0.547E-03
DAV:   3    -0.155267828801E+04    0.99050E-06   -0.81922E-06  5993   0.509E-03    0.425E-03
DAV:   4    -0.155267828531E+04    0.26959E-05   -0.44320E-06  5859   0.354E-03    0.219E-03
DAV:   5    -0.155267828382E+04    0.14933E-05   -0.26456E-06  5859   0.272E-03
  25 F= -.15526783E+04 E0= -.15526983E+04  d E =-.446105E-04
       N       E                     dE             d eps       ncg     rms          rms(c)
DAV:   1    -0.155267833523E+04   -0.49919E-04   -0.42987E-03 11256   0.863E-02    0.798E-03
DAV:   2    -0.155267833948E+04   -0.42465E-05   -0.29025E-05  8512   0.770E-03    0.597E-03
DAV:   3    -0.155267834068E+04   -0.12022E-05   -0.92375E-06  5937   0.479E-03    0.456E-03
DAV:   4    -0.155267834297E+04   -0.22880E-05   -0.57707E-06  5859   0.387E-03    0.141E-03
DAV:   5    -0.155267834368E+04   -0.70881E-06   -0.29354E-06  5859   0.286E-03
  26 F= -.15526783E+04 E0= -.15526983E+04  d E =-.598584E-04
       N       E                     dE             d eps       ncg     rms          rms(c)
DAV:   1    -0.155267839320E+04   -0.50230E-04   -0.36289E-03 11256   0.794E-02    0.777E-03
DAV:   2    -0.155267839009E+04    0.31039E-05   -0.23900E-05  7136   0.754E-03    0.552E-03
DAV:   3    -0.155267838941E+04    0.68442E-06   -0.94064E-06  5945   0.516E-03    0.427E-03
DAV:   4    -0.155267838713E+04    0.22750E-05   -0.52453E-06  5838   0.385E-03    0.212E-03
DAV:   5    -0.155267838601E+04    0.11210E-05   -0.31591E-06  5838   0.298E-03
  27 F= -.15526784E+04 E0= -.15526984E+04  d E =-.423370E-04
       N       E                     dE             d eps       ncg     rms          rms(c)
DAV:   1    -0.155267841556E+04   -0.28428E-04   -0.18629E-03 11256   0.570E-02    0.583E-03
DAV:   2    -0.155267841917E+04   -0.36065E-05   -0.13398E-05  5998   0.554E-03    0.419E-03
DAV:   3    -0.155267842024E+04   -0.10727E-05   -0.55022E-06  5831   0.387E-03    0.323E-03
DAV:   4    -0.155267842238E+04   -0.21385E-05   -0.33198E-06  5838   0.291E-03    0.135E-03
DAV:   5    -0.155267842339E+04   -0.10146E-05   -0.18970E-06  5838   0.231E-03
  28 F= -.15526784E+04 E0= -.15526984E+04  d E =-.373808E-04
       N       E                     dE             d eps       ncg     rms          rms(c)
DAV:   1    -0.155267846336E+04   -0.40981E-04   -0.29814E-03 11256   0.718E-02    0.661E-03
DAV:   2    -0.155267846207E+04    0.12852E-05   -0.18884E-05  7624   0.656E-03    0.487E-03
DAV:   3    -0.155267846178E+04    0.29083E-06   -0.72244E-06  5976   0.427E-03    0.371E-03
DAV:   4    -0.155267846027E+04    0.15089E-05   -0.42407E-06  5838   0.336E-03    0.156E-03
DAV:   5    -0.155267845982E+04    0.45067E-06   -0.24514E-06  5838   0.261E-03
  29 F= -.15526785E+04 E0= -.15526985E+04  d E =-.364305E-04
       N       E                     dE             d eps       ncg     rms          rms(c)
DAV:   1    -0.155267849802E+04   -0.37749E-04   -0.41198E-03 11256   0.845E-02    0.760E-03
DAV:   2    -0.155267850208E+04   -0.40599E-05   -0.27843E-05  8088   0.750E-03    0.564E-03
DAV:   3    -0.155267850350E+04   -0.14144E-05   -0.89511E-06  5944   0.461E-03    0.409E-03
DAV:   4    -0.155267850546E+04   -0.19625E-05   -0.53359E-06  5838   0.384E-03    0.137E-03
DAV:   5    -0.155267850611E+04   -0.65052E-06   -0.28530E-06  5838   0.282E-03
  30 F= -.15526785E+04 E0= -.15526985E+04  d E =-.462872E-04
       N       E                     dE             d eps       ncg     rms          rms(c)
DAV:   1    -0.155267852477E+04   -0.19311E-04   -0.57462E-04 11270   0.323E-02    0.471E-03
DAV:   2    -0.155267852071E+04    0.40577E-05   -0.61670E-06  5796   0.402E-03    0.292E-03
DAV:   3    -0.155267851977E+04    0.94874E-06   -0.27987E-06  5782   0.332E-03    0.231E-03
DAV:   4    -0.155267851804E+04    0.17234E-05   -0.14600E-06  5796   0.215E-03    0.124E-03
DAV:   5    -0.155267851682E+04    0.12204E-05   -0.90300E-07  5796   0.163E-03
  31 F= -.15526785E+04 E0= -.15526985E+04  d E =-.107106E-04
       N       E                     dE             d eps       ncg     rms          rms(c)
DAV:   1    -0.155267854373E+04   -0.25688E-04   -0.22294E-03 11256   0.621E-02    0.553E-03
DAV:   2    -0.155267854537E+04   -0.16407E-05   -0.12933E-05  6515   0.542E-03    0.417E-03
DAV:   3    -0.155267854594E+04   -0.56692E-06   -0.49159E-06  5875   0.338E-03    0.315E-03
DAV:   4    -0.155267854693E+04   -0.99377E-06   -0.32558E-06  5796   0.286E-03    0.862E-04
DAV:   5    -0.155267854712E+04   -0.19372E-06   -0.16192E-06  5796   0.209E-03
  32 F= -.15526785E+04 E0= -.15526985E+04  d E =-.303031E-04
       N       E                     dE             d eps       ncg     rms          rms(c)
DAV:   1    -0.155267860112E+04   -0.54185E-04   -0.10602E-02 11214   0.135E-01    0.118E-02
DAV:   2    -0.155267860422E+04   -0.31084E-05   -0.99212E-05 15000   0.116E-02    0.913E-03
DAV:   3    -0.155267860211E+04    0.21159E-05   -0.64299E-06  6202   0.477E-03    0.661E-03
DAV:   4    -0.155267859937E+04    0.27368E-05   -0.44331E-06  5976   0.440E-03    0.302E-03
DAV:   5    -0.155267859807E+04    0.12980E-05   -0.21607E-06  5880   0.325E-03
  33 F= -.15526786E+04 E0= -.15526986E+04  d E =-.509491E-04
       N       E                     dE             d eps       ncg     rms          rms(c)
DAV:   1    -0.155267857272E+04    0.26647E-04   -0.22082E-03 11242   0.624E-02    0.701E-03
DAV:   2    -0.155267857623E+04   -0.35053E-05   -0.11573E-05  5812   0.548E-03    0.464E-03
DAV:   3    -0.155267857754E+04   -0.13093E-05   -0.41059E-06  5789   0.370E-03    0.364E-03
DAV:   4    -0.155267857942E+04   -0.18797E-05   -0.23164E-06  5775   0.283E-03    0.151E-03
DAV:   5    -0.155267858061E+04   -0.11893E-05   -0.12693E-06  5775   0.188E-03
  34 F= -.15526786E+04 E0= -.15526986E+04  d E =0.174655E-04
       N       E                     dE             d eps       ncg     rms          rms(c)
DAV:   1    -0.155267861575E+04   -0.36331E-04   -0.46153E-03 11242   0.895E-02    0.750E-03
DAV:   2    -0.155267861627E+04   -0.51757E-06   -0.21180E-05  6286   0.714E-03    0.557E-03
DAV:   3    -0.155267861629E+04   -0.26944E-07   -0.69592E-06  5838   0.397E-03    0.392E-03
DAV:   4    -0.155267861586E+04    0.43522E-06   -0.43103E-06  5775   0.352E-03    0.118E-03
DAV:   5    -0.155267861595E+04   -0.88161E-07   -0.20555E-06  5775   0.238E-03
  35 F= -.15526786E+04 E0= -.15526986E+04  d E =-.353387E-04
       N       E                     dE             d eps       ncg     rms          rms(c)
DAV:   1    -0.155267869389E+04   -0.78035E-04   -0.51995E-02 11172   0.300E-01    0.253E-02
DAV:   2    -0.155267872090E+04   -0.27001E-04   -0.45103E-04 16656   0.248E-02    0.197E-02
DAV:   3    -0.155267871389E+04    0.70039E-05   -0.25202E-05  7913   0.892E-03    0.121E-02
DAV:   4    -0.155267870901E+04    0.48829E-05   -0.18065E-05  7224   0.930E-03    0.484E-03
DAV:   5    -0.155267870769E+04    0.13144E-05   -0.64916E-06  6128   0.601E-03
  36 F= -.15526787E+04 E0= -.15526987E+04  d E =-.917468E-04
       N       E                     dE             d eps       ncg     rms          rms(c)
DAV:   1    -0.155267874160E+04   -0.32595E-04   -0.41877E-02 11172   0.269E-01    0.221E-02
DAV:   2    -0.155267876520E+04   -0.23597E-04   -0.36390E-04 16656   0.223E-02    0.173E-02
DAV:   3    -0.155267876082E+04    0.43768E-05   -0.17839E-05  7177   0.778E-03    0.118E-02
DAV:   4    -0.155267875719E+04    0.36380E-05   -0.15046E-05  6848   0.820E-03    0.475E-03
DAV:   5    -0.155267875612E+04    0.10658E-05   -0.60932E-06  6112   0.597E-03
  37 F= -.15526788E+04 E0= -.15526987E+04  d E =-.484258E-04
       N       E                     dE             d eps       ncg     rms          rms(c)
DAV:   1    -0.155267876208E+04   -0.48989E-05   -0.26791E-02 11186   0.215E-01    0.176E-02
DAV:   2    -0.155267877806E+04   -0.15973E-04   -0.23699E-04 16616   0.180E-02    0.138E-02
DAV:   3    -0.155267877540E+04    0.26603E-05   -0.11699E-05  6794   0.613E-03    0.968E-03
DAV:   4    -0.155267877365E+04    0.17453E-05   -0.99017E-06  6328   0.646E-03    0.425E-03
DAV:   5    -0.155267877281E+04    0.84055E-06   -0.43619E-06  6016   0.511E-03
  38 F= -.15526788E+04 E0= -.15526987E+04  d E =-.166915E-04
