       N       E                     dE             d eps       ncg     rms          rms(c)
DAV:   1     0.258324917996E+04    0.25832E+04   -0.30922E+05 12264   0.144E+03
DAV:   2    -0.119676371181E+04   -0.37800E+04   -0.36184E+04 14108   0.333E+02
DAV:   3    -0.168656337393E+04   -0.48980E+03   -0.46322E+03 18704   0.826E+01
DAV:   4    -0.171163318377E+04   -0.25070E+02   -0.24224E+02 17200   0.184E+01
DAV:   5    -0.171268294102E+04   -0.10498E+01   -0.10337E+01 19184   0.388E+00    0.446E+01
DAV:   6    -0.165741233380E+04    0.55271E+02   -0.97545E+01 18080   0.126E+01    0.231E+01
DAV:   7    -0.163983710088E+04    0.17575E+02   -0.64697E+01 16896   0.115E+01    0.108E+01
DAV:   8    -0.163427587339E+04    0.55612E+01   -0.24910E+01 17304   0.962E+00    0.358E+00
DAV:   9    -0.163379539689E+04    0.48048E+00   -0.69356E+00 17600   0.448E+00    0.185E+00
DAV:  10    -0.163378417902E+04    0.11218E-01   -0.11981E+00 16128   0.164E+00    0.128E+00
DAV:  11    -0.163375995332E+04    0.24226E-01   -0.33499E-01 16896   0.752E-01    0.616E-01
DAV:  12    -0.163374916632E+04    0.10787E-01   -0.54178E-02 16984   0.364E-01    0.296E-01
DAV:  13    -0.163374660493E+04    0.25614E-02   -0.17412E-02 17696   0.186E-01    0.956E-02
DAV:  14    -0.163374645391E+04    0.15102E-03   -0.37870E-03 15512   0.994E-02    0.451E-02
DAV:  15    -0.163374645782E+04   -0.39151E-05   -0.94018E-04 14920   0.478E-02    0.277E-02
DAV:  16    -0.163374643357E+04    0.24247E-04   -0.21300E-04 16920   0.216E-02    0.134E-02
DAV:  17    -0.163374641720E+04    0.16376E-04   -0.36713E-05  9456   0.965E-03    0.671E-03
DAV:  18    -0.163374640902E+04    0.81773E-05   -0.18652E-05  7928   0.654E-03
   1 F= -.16337464E+04 E0= -.16337331E+04  d E =-.163375E+04
       N       E                     dE             d eps       ncg     rms          rms(c)
DAV:   1    -0.163481785342E+04   -0.10714E+01   -0.39878E+02 12264   0.270E+01    0.710E+00
DAV:   2    -0.163268229500E+04    0.21356E+01   -0.94779E+00 16856   0.401E+00    0.331E+00
DAV:   3    -0.163222033602E+04    0.46196E+00   -0.20139E+00 15608   0.198E+00    0.180E+00
DAV:   4    -0.163208742221E+04    0.13291E+00   -0.65580E-01 16272   0.151E+00    0.767E-01
DAV:   5    -0.163205716937E+04    0.30253E-01   -0.24610E-01 15816   0.967E-01    0.341E-01
DAV:   6    -0.163205958372E+04   -0.24143E-02   -0.55298E-02 16760   0.351E-01    0.251E-01
DAV:   7    -0.163206052157E+04   -0.93785E-03   -0.11643E-02 16176   0.144E-01    0.130E-01
DAV:   8    -0.163206102028E+04   -0.49870E-03   -0.29264E-03 16248   0.884E-02    0.652E-02
DAV:   9    -0.163206088342E+04    0.13686E-03   -0.97723E-04 16384   0.557E-02    0.312E-02
DAV:  10    -0.163206086664E+04    0.16780E-04   -0.48449E-04 17296   0.297E-02    0.178E-02
DAV:  11    -0.163206087739E+04   -0.10753E-04   -0.57761E-05 12704   0.119E-02    0.739E-03
DAV:  12    -0.163206088536E+04   -0.79666E-05   -0.13980E-05  7936   0.598E-03
   2 F= -.16320609E+04 E0= -.16320581E+04  d E =0.168552E+01
       N       E                     dE             d eps       ncg     rms          rms(c)
DAV:   1    -0.163670620877E+04   -0.46453E+01   -0.90624E+01 12264   0.153E+01    0.529E+00
DAV:   2    -0.163534904032E+04    0.13572E+01   -0.21371E+00 12720   0.213E+00    0.240E+00
DAV:   3    -0.163504031018E+04    0.30873E+00   -0.76393E-01 13866   0.136E+00    0.795E-01
DAV:   4    -0.163501019323E+04    0.30117E-01   -0.17957E-01 15760   0.771E-01    0.313E-01
DAV:   5    -0.163500502991E+04    0.51633E-02   -0.54584E-02 15754   0.464E-01    0.137E-01
DAV:   6    -0.163500636340E+04   -0.13335E-02   -0.12565E-02 15784   0.174E-01    0.918E-02
DAV:   7    -0.163500718732E+04   -0.82393E-03   -0.23015E-03 15848   0.690E-02    0.552E-02
DAV:   8    -0.163500756963E+04   -0.38230E-03   -0.56225E-04 15344   0.348E-02    0.285E-02
DAV:   9    -0.163500772830E+04   -0.15867E-03   -0.25388E-04 15136   0.239E-02    0.137E-02
DAV:  10    -0.163500776934E+04   -0.41043E-04   -0.82392E-05 13712   0.142E-02    0.635E-03
DAV:  11    -0.163500776923E+04    0.11169E-06   -0.15577E-05  7576   0.649E-03
   3 F= -.16350078E+04 E0= -.16349987E+04  d E =-.294688E+01
       N       E                     dE             d eps       ncg     rms          rms(c)
DAV:   1    -0.163509309212E+04   -0.85323E-01   -0.92877E+00 12264   0.398E+00    0.703E-01
DAV:   2    -0.163508763747E+04    0.54547E-02   -0.15930E-01 17848   0.533E-01    0.401E-01
DAV:   3    -0.163508325306E+04    0.43844E-02   -0.26408E-02 17824   0.247E-01    0.242E-01
DAV:   4    -0.163508077602E+04    0.24770E-02   -0.98814E-03 16904   0.190E-01    0.886E-02
DAV:   5    -0.163508046745E+04    0.30857E-03   -0.34823E-03 16640   0.104E-01    0.429E-02
DAV:   6    -0.163508049206E+04   -0.24605E-04   -0.60237E-04 15200   0.370E-02    0.299E-02
DAV:   7    -0.163508049762E+04   -0.55595E-05   -0.13189E-04 15488   0.159E-02    0.155E-02
DAV:   8    -0.163508050291E+04   -0.52988E-05   -0.32412E-05  9768   0.102E-02
   4 F= -.16350805E+04 E0= -.16350728E+04  d E =-.727337E-01
       N       E                     dE             d eps       ncg     rms          rms(c)
DAV:   1    -0.163508324975E+04   -0.27521E-02   -0.69889E-01 12366   0.106E+00    0.153E-01
DAV:   2    -0.163508352731E+04   -0.27755E-03   -0.13475E-02 17728   0.157E-01    0.856E-02
DAV:   3    -0.163508341567E+04    0.11163E-03   -0.16884E-03 17790   0.651E-02    0.596E-02
DAV:   4    -0.163508334447E+04    0.71206E-04   -0.39770E-04 17448   0.399E-02    0.349E-02
DAV:   5    -0.163508331283E+04    0.31632E-04   -0.22064E-04 15544   0.237E-02    0.955E-03
DAV:   6    -0.163508331221E+04    0.62236E-06   -0.31015E-05  9144   0.894E-03
   5 F= -.16350833E+04 E0= -.16350757E+04  d E =-.280930E-02
       N       E                     dE             d eps       ncg     rms          rms(c)
DAV:   1    -0.163508412633E+04   -0.81350E-03   -0.43115E-02 12464   0.283E-01    0.689E-02
DAV:   2    -0.163508400773E+04    0.11860E-03   -0.91227E-04 17064   0.415E-02    0.325E-02
DAV:   3    -0.163508399648E+04    0.11255E-04   -0.19268E-04 16872   0.210E-02    0.190E-02
DAV:   4    -0.163508400024E+04   -0.37626E-05   -0.62931E-05 14016   0.166E-02    0.856E-03
DAV:   5    -0.163508400781E+04   -0.75641E-05   -0.23553E-05  8248   0.957E-03
   6 F= -.16350840E+04 E0= -.16350763E+04  d E =-.695596E-03
       N       E                     dE             d eps       ncg     rms          rms(c)
DAV:   1    -0.163508421676E+04   -0.21652E-03   -0.24514E-02 12464   0.198E-01    0.235E-02
DAV:   2    -0.163508421623E+04    0.53626E-06   -0.23894E-04 17392   0.259E-02    0.162E-02
DAV:   3    -0.163508420734E+04    0.88906E-05   -0.38050E-05 10912   0.131E-02    0.122E-02
DAV:   4    -0.163508419687E+04    0.10464E-04   -0.17072E-05  7288   0.741E-03    0.281E-03
DAV:   5    -0.163508419587E+04    0.10036E-05   -0.48820E-06  6864   0.447E-03
   7 F= -.16350842E+04 E0= -.16350765E+04  d E =-.188062E-03
       N       E                     dE             d eps       ncg     rms          rms(c)
DAV:   1    -0.163508428804E+04   -0.91170E-04   -0.14586E-02 12448   0.153E-01    0.194E-02
DAV:   2    -0.163508429976E+04   -0.11715E-04   -0.13124E-04 16560   0.176E-02    0.129E-02
DAV:   3    -0.163508430016E+04   -0.39921E-06   -0.18500E-05  8984   0.915E-03    0.924E-03
DAV:   4    -0.163508430621E+04   -0.60530E-05   -0.11333E-05  7000   0.627E-03    0.169E-03
DAV:   5    -0.163508430712E+04   -0.91046E-06   -0.31905E-06  6704   0.360E-03
   8 F= -.16350843E+04 E0= -.16350765E+04  d E =-.111252E-03
       N       E                     dE             d eps       ncg     rms          rms(c)
DAV:   1    -0.163508436164E+04   -0.55430E-04   -0.12079E-03 12512   0.499E-02    0.144E-02
DAV:   2    -0.163508433962E+04    0.22022E-04   -0.16004E-05  6696   0.646E-03    0.702E-03
DAV:   3    -0.163508432849E+04    0.11126E-04   -0.89043E-06  6640   0.508E-03    0.256E-03
DAV:   4    -0.163508432536E+04    0.31359E-05   -0.29975E-06  6696   0.445E-03    0.126E-03
DAV:   5    -0.163508432351E+04    0.18450E-05   -0.13070E-06  6696   0.212E-03
   9 F= -.16350843E+04 E0= -.16350766E+04  d E =-.163912E-04
       N       E                     dE             d eps       ncg     rms          rms(c)
DAV:   1    -0.163508437754E+04   -0.52180E-04   -0.62153E-03 12432   0.993E-02    0.110E-02
DAV:   2    -0.163508438281E+04   -0.52715E-05   -0.45555E-05 11880   0.102E-02    0.782E-03
DAV:   3    -0.163508438391E+04   -0.10977E-05   -0.84703E-06  7048   0.542E-03    0.494E-03
DAV:   4    -0.163508438656E+04   -0.26528E-05   -0.47568E-06  6696   0.412E-03    0.798E-04
DAV:   5    -0.163508438641E+04    0.14697E-06   -0.16895E-06  6648   0.254E-03
  10 F= -.16350844E+04 E0= -.16350766E+04  d E =-.629000E-04
       N       E                     dE             d eps       ncg     rms          rms(c)
DAV:   1    -0.163508443402E+04   -0.47466E-04   -0.58360E-03 12432   0.961E-02    0.107E-02
DAV:   2    -0.163508443125E+04    0.27792E-05   -0.43376E-05 11312   0.956E-03    0.753E-03
DAV:   3    -0.163508442817E+04    0.30764E-05   -0.87648E-06  6848   0.523E-03    0.412E-03
DAV:   4    -0.163508442523E+04    0.29372E-05   -0.39781E-06  6672   0.404E-03    0.787E-04
DAV:   5    -0.163508442543E+04   -0.20255E-06   -0.17340E-06  6640   0.255E-03
  11 F= -.16350844E+04 E0= -.16350767E+04  d E =-.390228E-04
       N       E                     dE             d eps       ncg     rms          rms(c)
DAV:   1    -0.163508443292E+04   -0.76914E-05   -0.49451E-04 12448   0.304E-02    0.734E-03
DAV:   2    -0.163508443703E+04   -0.41042E-05   -0.57497E-06  6504   0.366E-03    0.370E-03
DAV:   3    -0.163508444137E+04   -0.43460E-05   -0.29399E-06  6472   0.246E-03    0.108E-03
DAV:   4    -0.163508444296E+04   -0.15896E-05   -0.97360E-07  6432   0.180E-03    0.581E-04
DAV:   5    -0.163508444347E+04   -0.50816E-06   -0.44866E-07  6432   0.120E-03
  12 F= -.16350844E+04 E0= -.16350767E+04  d E =-.180368E-04
       N       E                     dE             d eps       ncg     rms          rms(c)
DAV:   1    -0.163508447267E+04   -0.29711E-04   -0.24410E-03 12432   0.622E-02    0.718E-03
DAV:   2    -0.163508446951E+04    0.31623E-05   -0.13955E-05  6840   0.613E-03    0.484E-03
DAV:   3    -0.163508446661E+04    0.28964E-05   -0.51228E-06  6600   0.355E-03    0.174E-03
DAV:   4    -0.163508446560E+04    0.10141E-05   -0.23670E-06  6456   0.293E-03    0.641E-04
DAV:   5    -0.163508446577E+04   -0.16800E-06   -0.12619E-06  6440   0.205E-03
  13 F= -.16350845E+04 E0= -.16350767E+04  d E =-.222979E-04
       N       E                     dE             d eps       ncg     rms          rms(c)
DAV:   1    -0.163508448517E+04   -0.19568E-04   -0.27420E-03 12432   0.657E-02    0.708E-03
DAV:   2    -0.163508448784E+04   -0.26715E-05   -0.16542E-05  8448   0.658E-03    0.501E-03
DAV:   3    -0.163508448996E+04   -0.21243E-05   -0.65150E-06  6600   0.382E-03    0.972E-04
DAV:   4    -0.163508449057E+04   -0.60665E-06   -0.27638E-06  6384   0.287E-03    0.547E-04
DAV:   5    -0.163508449057E+04    0.49868E-08   -0.15247E-06  6384   0.214E-03
  14 F= -.16350845E+04 E0= -.16350767E+04  d E =-.247975E-04
       N       E                     dE             d eps       ncg     rms          rms(c)
DAV:   1    -0.163508450125E+04   -0.10681E-04   -0.27203E-04 12336   0.223E-02    0.515E-03
DAV:   2    -0.163508449592E+04    0.53315E-05   -0.34702E-06  6384   0.293E-03    0.260E-03
DAV:   3    -0.163508449245E+04    0.34739E-05   -0.17302E-06  6384   0.205E-03    0.839E-04
DAV:   4    -0.163508449140E+04    0.10462E-05   -0.69045E-07  6384   0.162E-03    0.471E-04
DAV:   5    -0.163508449103E+04    0.37024E-06   -0.36108E-07  6384   0.110E-03
  15 F= -.16350845E+04 E0= -.16350767E+04  d E =-.464061E-06
       N       E                     dE             d eps       ncg     rms          rms(c)
DAV:   1    -0.163508450183E+04   -0.10432E-04   -0.11043E-03 12432   0.419E-02    0.481E-03
DAV:   2    -0.163508450390E+04   -0.20715E-05   -0.64322E-06  6408   0.414E-03    0.327E-03
DAV:   3    -0.163508450591E+04   -0.20056E-05   -0.26494E-06  6408   0.236E-03    0.658E-04
DAV:   4    -0.163508450629E+04   -0.38175E-06   -0.10847E-06  6384   0.166E-03    0.363E-04
DAV:   5    -0.163508450632E+04   -0.33523E-07   -0.58537E-07  6384   0.126E-03
  16 F= -.16350845E+04 E0= -.16350768E+04  d E =-.152945E-04
       N       E                     dE             d eps       ncg     rms          rms(c)
DAV:   1    -0.163508452000E+04   -0.13706E-04   -0.17289E-03 12432   0.521E-02    0.549E-03
DAV:   2    -0.163508451905E+04    0.94365E-06   -0.99828E-06  6872   0.518E-03    0.391E-03
DAV:   3    -0.163508451748E+04    0.15739E-05   -0.40053E-06  6600   0.294E-03    0.688E-04
DAV:   4    -0.163508451744E+04    0.36525E-07   -0.17183E-06  6384   0.212E-03    0.403E-04
DAV:   5    -0.163508451760E+04   -0.15526E-06   -0.94954E-07  6384   0.164E-03
  17 F= -.16350845E+04 E0= -.16350768E+04  d E =-.112732E-04
       N       E                     dE             d eps       ncg     rms          rms(c)
DAV:   1    -0.163508451755E+04   -0.10919E-06   -0.17802E-04 12208   0.182E-02    0.439E-03
DAV:   2    -0.163508452060E+04   -0.30458E-05   -0.23801E-06  6384   0.242E-03    0.220E-03
DAV:   3    -0.163508452332E+04   -0.27230E-05   -0.12164E-06  6384   0.165E-03    0.666E-04
DAV:   4    -0.163508452430E+04   -0.98104E-06   -0.45703E-07  6384   0.119E-03    0.346E-04
DAV:   5    -0.163508452459E+04   -0.29016E-06   -0.22986E-07  6384   0.809E-04
  18 F= -.16350845E+04 E0= -.16350768E+04  d E =-.699397E-05
       N       E                     dE             d eps       ncg     rms          rms(c)
DAV:   1    -0.163508453394E+04   -0.96410E-05   -0.51020E-04 12432   0.286E-02    0.380E-03
DAV:   2    -0.163508453152E+04    0.24262E-05   -0.32351E-06  6384   0.293E-03    0.238E-03
DAV:   3    -0.163508452943E+04    0.20839E-05   -0.13292E-06  6384   0.170E-03    0.691E-04
DAV:   4    -0.163508452894E+04    0.49227E-06   -0.55669E-07  6384   0.125E-03    0.364E-04
DAV:   5    -0.163508452890E+04    0.40552E-07   -0.29479E-07  6384   0.935E-04
  19 F= -.16350845E+04 E0= -.16350768E+04  d E =-.430789E-05
       N       E                     dE             d eps       ncg     rms          rms(c)
DAV:   1    -0.163508453482E+04   -0.58806E-05   -0.80314E-04 12432   0.355E-02    0.366E-03
DAV:   2    -0.163508453550E+04   -0.67562E-06   -0.46033E-06  6384   0.352E-03    0.265E-03
DAV:   3    -0.163508453605E+04   -0.55510E-06   -0.19681E-06  6384   0.203E-03    0.386E-04
DAV:   4    -0.163508453613E+04   -0.80814E-07   -0.79715E-07  6384   0.135E-03    0.244E-04
DAV:   5    -0.163508453615E+04   -0.17546E-07   -0.43921E-07  6384   0.105E-03
  20 F= -.16350845E+04 E0= -.16350768E+04  d E =-.725024E-05
       N       E                     dE             d eps       ncg     rms          rms(c)
DAV:   1    -0.163508454428E+04   -0.81481E-05   -0.82494E-04 12432   0.365E-02    0.501E-03
DAV:   2    -0.163508454065E+04    0.36260E-05   -0.55734E-06  6576   0.383E-03    0.305E-03
DAV:   3    -0.163508453781E+04    0.28468E-05   -0.22798E-06  6456   0.224E-03    0.962E-04
DAV:   4    -0.163508453704E+04    0.76701E-06   -0.96289E-07  6384   0.168E-03    0.502E-04
DAV:   5    -0.163508453695E+04    0.89609E-07   -0.50663E-07  6384   0.124E-03
  21 F= -.16350845E+04 E0= -.16350768E+04  d E =-.801120E-06
       N       E                     dE             d eps       ncg     rms          rms(c)
DAV:   1    -0.163508453561E+04    0.14260E-05   -0.31657E-05  7776   0.922E-03    0.285E-03
DAV:   2    -0.163508453815E+04   -0.25401E-05   -0.16285E-06  6448   0.273E-03    0.144E-03
DAV:   3    -0.163508454060E+04   -0.24419E-05   -0.32318E-07  6384   0.771E-04    0.406E-04
DAV:   4    -0.163508454103E+04   -0.43085E-06   -0.10071E-07  6384   0.692E-04    0.235E-04
DAV:   5    -0.163508454140E+04   -0.37277E-06   -0.58122E-08  6384   0.413E-04
  22 F= -.16350845E+04 E0= -.16350768E+04  d E =-.444924E-05
       N       E                     dE             d eps       ncg     rms          rms(c)
DAV:   1    -0.163508454492E+04   -0.38882E-05   -0.39855E-04 12336   0.250E-02    0.252E-03
DAV:   2    -0.163508454488E+04    0.38690E-07   -0.21612E-06  6384   0.239E-03    0.183E-03
DAV:   3    -0.163508454466E+04    0.21863E-06   -0.87373E-07  6384   0.132E-03    0.267E-04
DAV:   4    -0.163508454468E+04   -0.24099E-07   -0.33918E-07  6384   0.861E-04    0.175E-04
DAV:   5    -0.163508454470E+04   -0.21403E-07   -0.18373E-07  6384   0.665E-04
  23 F= -.16350845E+04 E0= -.16350768E+04  d E =-.330360E-05
       N       E                     dE             d eps       ncg     rms          rms(c)
DAV:   1    -0.163508455167E+04   -0.69842E-05   -0.54751E-03 12408   0.928E-02    0.926E-03
DAV:   2    -0.163508455358E+04   -0.19111E-05   -0.32514E-05  9944   0.882E-03    0.681E-03
DAV:   3    -0.163508455332E+04    0.25762E-06   -0.10372E-05  6708   0.472E-03    0.923E-04
DAV:   4    -0.163508455365E+04   -0.33351E-06   -0.33787E-06  6432   0.290E-03    0.629E-04
DAV:   5    -0.163508455378E+04   -0.12465E-06   -0.17136E-06  6412   0.215E-03
  24 F= -.16350846E+04 E0= -.16350768E+04  d E =-.907446E-05
