       N       E                     dE             d eps       ncg     rms          rms(c)
DAV:   1     0.244706282139E+04    0.24471E+04   -0.30240E+05 12040   0.144E+03
DAV:   2    -0.120101953346E+04   -0.36481E+04   -0.34962E+04 13932   0.321E+02
DAV:   3    -0.166774671759E+04   -0.46673E+03   -0.43811E+03 18520   0.820E+01
DAV:   4    -0.169251715434E+04   -0.24770E+02   -0.23546E+02 16792   0.178E+01
DAV:   5    -0.169358025780E+04   -0.10631E+01   -0.10459E+01 18792   0.404E+00    0.438E+01
DAV:   6    -0.164680046014E+04    0.46780E+02   -0.16166E+02 18232   0.182E+01    0.247E+01
DAV:   7    -0.163270038374E+04    0.14100E+02   -0.10198E+02 19320   0.171E+01    0.184E+01
DAV:   8    -0.161877826294E+04    0.13922E+02   -0.66683E+01 17504   0.121E+01    0.776E+00
DAV:   9    -0.161600751448E+04    0.27707E+01   -0.22580E+01 17232   0.758E+00    0.255E+00
DAV:  10    -0.161597629312E+04    0.31221E-01   -0.36588E+00 15936   0.302E+00    0.168E+00
DAV:  11    -0.161595380992E+04    0.22483E-01   -0.66494E-01 16760   0.115E+00    0.116E+00
DAV:  12    -0.161591117134E+04    0.42639E-01   -0.22119E-01 13928   0.695E-01    0.495E-01
DAV:  13    -0.161590483021E+04    0.63411E-02   -0.38333E-02 16624   0.308E-01    0.236E-01
DAV:  14    -0.161590322233E+04    0.16079E-02   -0.97441E-03 15456   0.167E-01    0.119E-01
DAV:  15    -0.161590295850E+04    0.26383E-03   -0.36947E-03 14768   0.964E-02    0.594E-02
DAV:  16    -0.161590301753E+04   -0.59034E-04   -0.74684E-04 14648   0.423E-02    0.255E-02
DAV:  17    -0.161590302873E+04   -0.11197E-04   -0.18657E-04 15728   0.245E-02    0.137E-02
DAV:  18    -0.161590302496E+04    0.37687E-05   -0.57238E-05 12224   0.136E-02
   1 F= -.16159030E+04 E0= -.16159052E+04  d E =-.161590E+04
       N       E                     dE             d eps       ncg     rms          rms(c)
DAV:   1    -0.161774680778E+04   -0.18438E+01   -0.66234E+02 12040   0.373E+01    0.123E+01
DAV:   2    -0.161154152442E+04    0.62053E+01   -0.26155E+01 17016   0.740E+00    0.650E+00
DAV:   3    -0.160990853072E+04    0.16330E+01   -0.13685E+01 18736   0.582E+00    0.479E+00
DAV:   4    -0.160871814502E+04    0.11904E+01   -0.46590E+00 18816   0.367E+00    0.261E+00
DAV:   5    -0.160837834034E+04    0.33980E+00   -0.24600E+00 15944   0.239E+00    0.780E-01
DAV:   6    -0.160837620528E+04    0.21351E-02   -0.38137E-01 15488   0.102E+00    0.551E-01
DAV:   7    -0.160837412094E+04    0.20843E-02   -0.67636E-02 14912   0.407E-01    0.387E-01
DAV:   8    -0.160837477799E+04   -0.65706E-03   -0.31517E-02 16744   0.227E-01    0.187E-01
DAV:   9    -0.160837623850E+04   -0.14605E-02   -0.10293E-02 14912   0.138E-01    0.140E-01
DAV:  10    -0.160837547505E+04    0.76344E-03   -0.25009E-03 15384   0.820E-02    0.812E-02
DAV:  11    -0.160837522104E+04    0.25401E-03   -0.17725E-03 17488   0.562E-02    0.335E-02
DAV:  12    -0.160837527203E+04   -0.50994E-04   -0.53852E-04 17064   0.302E-02    0.270E-02
DAV:  13    -0.160837526735E+04    0.46796E-05   -0.10281E-04 14728   0.169E-02    0.134E-02
DAV:  14    -0.160837526858E+04   -0.12217E-05   -0.45497E-05 10232   0.941E-03
   2 F= -.16083753E+04 E0= -.16083687E+04  d E =0.752776E+01
       N       E                     dE             d eps       ncg     rms          rms(c)
DAV:   1    -0.162313582197E+04   -0.14761E+02   -0.25235E+02 12040   0.259E+01    0.881E+00
DAV:   2    -0.161953793167E+04    0.35979E+01   -0.72719E+00 15082   0.430E+00    0.425E+00
DAV:   3    -0.161898565135E+04    0.55228E+00   -0.38938E+00 16192   0.325E+00    0.307E+00
DAV:   4    -0.161839843871E+04    0.58721E+00   -0.18666E+00 16696   0.260E+00    0.125E+00
DAV:   5    -0.161833267881E+04    0.65760E-01   -0.78206E-01 15328   0.139E+00    0.439E-01
DAV:   6    -0.161833248455E+04    0.19426E-03   -0.10352E-01 14552   0.562E-01    0.297E-01
DAV:   7    -0.161833325335E+04   -0.76880E-03   -0.18904E-02 15888   0.202E-01    0.195E-01
DAV:   8    -0.161833512298E+04   -0.18696E-02   -0.10416E-02 15800   0.133E-01    0.938E-02
DAV:   9    -0.161833550539E+04   -0.38240E-03   -0.19870E-03 14088   0.727E-02    0.585E-02
DAV:  10    -0.161833549244E+04    0.12947E-04   -0.88721E-04 16448   0.427E-02    0.292E-02
DAV:  11    -0.161833562129E+04   -0.12885E-03   -0.49032E-04 16392   0.319E-02    0.324E-02
DAV:  12    -0.161833564482E+04   -0.23529E-04   -0.10128E-04 13800   0.141E-02    0.160E-02
DAV:  13    -0.161833563165E+04    0.13168E-04   -0.42156E-05 10064   0.913E-03    0.465E-03
DAV:  14    -0.161833562687E+04    0.47808E-05   -0.13794E-05  7080   0.609E-03
   3 F= -.16183356E+04 E0= -.16183411E+04  d E =-.996036E+01
       N       E                     dE             d eps       ncg     rms          rms(c)
DAV:   1    -0.161841306167E+04   -0.77430E-01   -0.12614E+01 12040   0.451E+00    0.578E-01
DAV:   2    -0.161842925906E+04   -0.16197E-01   -0.23921E-01 17296   0.808E-01    0.497E-01
DAV:   3    -0.161841369616E+04    0.15563E-01   -0.75288E-02 17984   0.473E-01    0.288E-01
DAV:   4    -0.161841199276E+04    0.17034E-02   -0.11307E-02 17616   0.165E-01    0.173E-01
DAV:   5    -0.161841119457E+04    0.79819E-03   -0.57526E-03 16080   0.125E-01    0.550E-02
DAV:   6    -0.161841110140E+04    0.93166E-04   -0.14064E-03 15848   0.689E-02    0.343E-02
DAV:   7    -0.161841107208E+04    0.29317E-04   -0.28961E-04 15864   0.276E-02    0.211E-02
DAV:   8    -0.161841106657E+04    0.55108E-05   -0.77455E-05 13712   0.125E-02
   4 F= -.16184111E+04 E0= -.16184175E+04  d E =-.754397E-01
       N       E                     dE             d eps       ncg     rms          rms(c)
DAV:   1    -0.161842624752E+04   -0.15175E-01   -0.25314E+00 12040   0.203E+00    0.237E-01
DAV:   2    -0.161842962835E+04   -0.33808E-02   -0.38964E-02 16680   0.367E-01    0.226E-01
DAV:   3    -0.161842597786E+04    0.36505E-02   -0.13442E-02 17432   0.210E-01    0.124E-01
DAV:   4    -0.161842564284E+04    0.33502E-03   -0.23883E-03 16344   0.745E-02    0.558E-02
DAV:   5    -0.161842558108E+04    0.61756E-04   -0.91147E-04 15560   0.535E-02    0.204E-02
DAV:   6    -0.161842556763E+04    0.13453E-04   -0.21553E-04 15400   0.265E-02    0.125E-02
DAV:   7    -0.161842555945E+04    0.81752E-05   -0.35810E-05  9184   0.104E-02
   5 F= -.16184256E+04 E0= -.16184322E+04  d E =-.144929E-01
       N       E                     dE             d eps       ncg     rms          rms(c)
DAV:   1    -0.161842938931E+04   -0.38217E-02   -0.28558E-01 12172   0.784E-01    0.229E-01
DAV:   2    -0.161842738381E+04    0.20055E-02   -0.81403E-03 16680   0.161E-01    0.136E-01
DAV:   3    -0.161842644868E+04    0.93513E-03   -0.49154E-03 17816   0.122E-01    0.926E-02
DAV:   4    -0.161842586373E+04    0.58495E-03   -0.14360E-03 16304   0.657E-02    0.339E-02
DAV:   5    -0.161842575737E+04    0.10637E-03   -0.52202E-04 15096   0.378E-02    0.128E-02
DAV:   6    -0.161842574566E+04    0.11711E-04   -0.94429E-05 14344   0.184E-02    0.857E-03
DAV:   7    -0.161842574455E+04    0.11041E-05   -0.14615E-05  7256   0.650E-03
   6 F= -.16184257E+04 E0= -.16184327E+04  d E =-.185100E-03
       N       E                     dE             d eps       ncg     rms          rms(c)
DAV:   1    -0.161843129763E+04   -0.55520E-02   -0.25062E-01 12160   0.685E-01    0.147E-01
DAV:   2    -0.161843067623E+04    0.62140E-03   -0.34204E-03 15344   0.986E-02    0.823E-02
DAV:   3    -0.161843052680E+04    0.14942E-03   -0.14989E-03 17662   0.674E-02    0.621E-02
DAV:   4    -0.161843037846E+04    0.14835E-03   -0.62525E-04 16088   0.427E-02    0.224E-02
DAV:   5    -0.161843040009E+04   -0.21633E-04   -0.21504E-04 14520   0.225E-02    0.922E-03
DAV:   6    -0.161843040063E+04   -0.54369E-06   -0.27239E-05  9056   0.105E-02
   7 F= -.16184304E+04 E0= -.16184372E+04  d E =-.465608E-02
       N       E                     dE             d eps       ncg     rms          rms(c)
DAV:   1    -0.161843154281E+04   -0.11427E-02   -0.13436E-01 12172   0.466E-01    0.585E-02
DAV:   2    -0.161843171117E+04   -0.16836E-03   -0.21418E-03 16768   0.887E-02    0.561E-02
DAV:   3    -0.161843147344E+04    0.23773E-03   -0.81019E-04 17108   0.519E-02    0.299E-02
DAV:   4    -0.161843144047E+04    0.32968E-04   -0.12991E-04 15136   0.178E-02    0.129E-02
DAV:   5    -0.161843142989E+04    0.10585E-04   -0.37942E-05  9992   0.127E-02    0.442E-03
DAV:   6    -0.161843142926E+04    0.62600E-06   -0.98942E-06  7120   0.746E-03
   8 F= -.16184314E+04 E0= -.16184383E+04  d E =-.102863E-02
       N       E                     dE             d eps       ncg     rms          rms(c)
DAV:   1    -0.161843183869E+04   -0.40880E-03   -0.64153E-02 12184   0.328E-01    0.480E-02
DAV:   2    -0.161843186197E+04   -0.23278E-04   -0.74196E-04 16184   0.472E-02    0.333E-02
DAV:   3    -0.161843182639E+04    0.35579E-04   -0.25812E-04 18128   0.280E-02    0.237E-02
DAV:   4    -0.161843182638E+04    0.34534E-08   -0.70464E-05 13968   0.133E-02    0.839E-03
DAV:   5    -0.161843183430E+04   -0.79101E-05   -0.17191E-05  7512   0.848E-03
   9 F= -.16184318E+04 E0= -.16184387E+04  d E =-.405034E-03
       N       E                     dE             d eps       ncg     rms          rms(c)
DAV:   1    -0.161843215009E+04   -0.32371E-03   -0.68436E-03 12208   0.124E-01    0.381E-02
DAV:   2    -0.161843205938E+04    0.90718E-04   -0.18513E-04 16608   0.222E-02    0.205E-02
DAV:   3    -0.161843203416E+04    0.25214E-04   -0.10032E-04 15248   0.174E-02    0.148E-02
DAV:   4    -0.161843200444E+04    0.29720E-04   -0.30034E-05  9416   0.109E-02    0.574E-03
DAV:   5    -0.161843199292E+04    0.11521E-04   -0.13694E-05  6472   0.649E-03    0.161E-03
DAV:   6    -0.161843199189E+04    0.10324E-05   -0.36411E-06  6464   0.444E-03
  10 F= -.16184320E+04 E0= -.16184389E+04  d E =-.157592E-03
       N       E                     dE             d eps       ncg     rms          rms(c)
DAV:   1    -0.161843220679E+04   -0.21387E-03   -0.24264E-02 12196   0.198E-01    0.213E-02
DAV:   2    -0.161843222926E+04   -0.22472E-04   -0.24447E-04 17160   0.253E-02    0.177E-02
DAV:   3    -0.161843221746E+04    0.11807E-04   -0.53870E-05 11818   0.142E-02    0.125E-02
DAV:   4    -0.161843222030E+04   -0.28408E-05   -0.22085E-05  6984   0.739E-03    0.235E-03
DAV:   5    -0.161843222103E+04   -0.73223E-06   -0.50076E-06  6504   0.516E-03
  11 F= -.16184322E+04 E0= -.16184392E+04  d E =-.229143E-03
       N       E                     dE             d eps       ncg     rms          rms(c)
DAV:   1    -0.161843239086E+04   -0.17056E-03   -0.22905E-02 12196   0.193E-01    0.218E-02
DAV:   2    -0.161843239534E+04   -0.44887E-05   -0.24139E-04 17760   0.246E-02    0.176E-02
DAV:   3    -0.161843238053E+04    0.14814E-04   -0.57621E-05 12128   0.147E-02    0.122E-02
DAV:   4    -0.161843236961E+04    0.10923E-04   -0.17469E-05  7016   0.696E-03    0.390E-03
DAV:   5    -0.161843236691E+04    0.26983E-05   -0.55685E-06  6464   0.515E-03
  12 F= -.16184324E+04 E0= -.16184394E+04  d E =-.145878E-03
       N       E                     dE             d eps       ncg     rms          rms(c)
DAV:   1    -0.161843239267E+04   -0.23065E-04   -0.10119E-03 12208   0.474E-02    0.142E-02
DAV:   2    -0.161843239622E+04   -0.35461E-05   -0.16003E-05  6424   0.666E-03    0.700E-03
DAV:   3    -0.161843240176E+04   -0.55401E-05   -0.77548E-06  6392   0.532E-03    0.408E-03
DAV:   4    -0.161843240540E+04   -0.36421E-05   -0.37553E-06  6304   0.424E-03    0.151E-03
DAV:   5    -0.161843240796E+04   -0.25616E-05   -0.17429E-06  6296   0.243E-03
  13 F= -.16184324E+04 E0= -.16184394E+04  d E =-.410532E-04
       N       E                     dE             d eps       ncg     rms          rms(c)
DAV:   1    -0.161843250933E+04   -0.10393E-03   -0.95404E-03 12196   0.124E-01    0.138E-02
DAV:   2    -0.161843250729E+04    0.20407E-05   -0.82609E-05 14504   0.134E-02    0.102E-02
DAV:   3    -0.161843250355E+04    0.37449E-05   -0.14678E-05  7970   0.739E-03    0.770E-03
DAV:   4    -0.161843249756E+04    0.59904E-05   -0.78720E-06  6416   0.473E-03    0.208E-03
DAV:   5    -0.161843249644E+04    0.11184E-05   -0.26285E-06  6328   0.341E-03
  14 F= -.16184325E+04 E0= -.16184395E+04  d E =-.884756E-04
       N       E                     dE             d eps       ncg     rms          rms(c)
DAV:   1    -0.161843257194E+04   -0.74389E-04   -0.10152E-02 12184   0.128E-01    0.128E-02
DAV:   2    -0.161843258021E+04   -0.82643E-05   -0.85045E-05 15024   0.123E-02    0.967E-03
DAV:   3    -0.161843258033E+04   -0.11624E-06   -0.88701E-06  7098   0.559E-03    0.706E-03
DAV:   4    -0.161843258259E+04   -0.22655E-05   -0.67494E-06  6352   0.448E-03    0.123E-03
DAV:   5    -0.161843258253E+04    0.61424E-07   -0.15809E-06  6288   0.262E-03
  15 F= -.16184326E+04 E0= -.16184396E+04  d E =-.860918E-04
       N       E                     dE             d eps       ncg     rms          rms(c)
DAV:   1    -0.161843261862E+04   -0.36026E-04   -0.15594E-03 12208   0.522E-02    0.945E-03
DAV:   2    -0.161843260828E+04    0.10333E-04   -0.13621E-05  6448   0.636E-03    0.531E-03
DAV:   3    -0.161843260488E+04    0.34022E-05   -0.56403E-06  6392   0.494E-03    0.366E-03
DAV:   4    -0.161843260030E+04    0.45819E-05   -0.29291E-06  6272   0.362E-03    0.134E-03
DAV:   5    -0.161843259866E+04    0.16404E-05   -0.15653E-06  6272   0.226E-03
  16 F= -.16184326E+04 E0= -.16184396E+04  d E =-.161308E-04
       N       E                     dE             d eps       ncg     rms          rms(c)
DAV:   1    -0.161843263738E+04   -0.37080E-04   -0.33668E-03 12184   0.742E-02    0.917E-03
DAV:   2    -0.161843264166E+04   -0.42787E-05   -0.20957E-05  8576   0.731E-03    0.598E-03
DAV:   3    -0.161843264499E+04   -0.33267E-05   -0.80775E-06  6364   0.430E-03    0.256E-03
DAV:   4    -0.161843264709E+04   -0.21000E-05   -0.39410E-06  6272   0.341E-03    0.114E-03
DAV:   5    -0.161843264763E+04   -0.54226E-06   -0.20583E-06  6260   0.255E-03
  17 F= -.16184326E+04 E0= -.16184396E+04  d E =-.489683E-04
       N       E                     dE             d eps       ncg     rms          rms(c)
DAV:   1    -0.161843268814E+04   -0.41049E-04   -0.38967E-03 12184   0.792E-02    0.835E-03
DAV:   2    -0.161843268640E+04    0.17379E-05   -0.25464E-05  8144   0.793E-03    0.595E-03
DAV:   3    -0.161843268516E+04    0.12366E-05   -0.81522E-06  6416   0.474E-03    0.378E-03
DAV:   4    -0.161843268300E+04    0.21577E-05   -0.47117E-06  6272   0.391E-03    0.771E-04
DAV:   5    -0.161843268315E+04   -0.14864E-06   -0.23492E-06  6272   0.275E-03
  18 F= -.16184327E+04 E0= -.16184397E+04  d E =-.355232E-04
       N       E                     dE             d eps       ncg     rms          rms(c)
DAV:   1    -0.161843270267E+04   -0.19669E-04   -0.17237E-03 12196   0.532E-02    0.687E-03
DAV:   2    -0.161843270645E+04   -0.37811E-05   -0.12409E-05  6448   0.567E-03    0.439E-03
DAV:   3    -0.161843270888E+04   -0.24309E-05   -0.50604E-06  6266   0.363E-03    0.244E-03
DAV:   4    -0.161843271088E+04   -0.19989E-05   -0.26820E-06  6272   0.290E-03    0.945E-04
DAV:   5    -0.161843271158E+04   -0.69942E-06   -0.14671E-06  6272   0.211E-03
  19 F= -.16184327E+04 E0= -.16184397E+04  d E =-.284306E-04
       N       E                     dE             d eps       ncg     rms          rms(c)
DAV:   1    -0.161843273494E+04   -0.24060E-04   -0.12614E-03 12184   0.454E-02    0.577E-03
DAV:   2    -0.161843273146E+04    0.34871E-05   -0.89372E-06  6368   0.487E-03    0.373E-03
DAV:   3    -0.161843272986E+04    0.15934E-05   -0.35405E-06  6260   0.320E-03    0.238E-03
DAV:   4    -0.161843272789E+04    0.19717E-05   -0.19474E-06  6272   0.255E-03    0.823E-04
DAV:   5    -0.161843272745E+04    0.43757E-06   -0.10781E-06  6266   0.182E-03
  20 F= -.16184327E+04 E0= -.16184397E+04  d E =-.158712E-04
       N       E                     dE             d eps       ncg     rms          rms(c)
DAV:   1    -0.161843274944E+04   -0.21548E-04   -0.23609E-03 12184   0.616E-02    0.622E-03
DAV:   2    -0.161843275139E+04   -0.19508E-05   -0.13886E-05  8080   0.601E-03    0.450E-03
DAV:   3    -0.161843275269E+04   -0.13046E-05   -0.55449E-06  6448   0.355E-03    0.140E-03
DAV:   4    -0.161843275348E+04   -0.78475E-06   -0.27273E-06  6272   0.284E-03    0.637E-04
DAV:   5    -0.161843275344E+04    0.36504E-07   -0.14882E-06  6272   0.209E-03
  21 F= -.16184328E+04 E0= -.16184398E+04  d E =-.259890E-04
       N       E                     dE             d eps       ncg     rms          rms(c)
DAV:   1    -0.161843277748E+04   -0.24005E-04   -0.24047E-03 12184   0.625E-02    0.740E-03
DAV:   2    -0.161843277335E+04    0.41317E-05   -0.15993E-05  6696   0.649E-03    0.487E-03
DAV:   3    -0.161843277130E+04    0.20559E-05   -0.59367E-06  6272   0.408E-03    0.301E-03
DAV:   4    -0.161843276893E+04    0.23663E-05   -0.32373E-06  6272   0.331E-03    0.104E-03
DAV:   5    -0.161843276850E+04    0.43304E-06   -0.17793E-06  6272   0.235E-03
  22 F= -.16184328E+04 E0= -.16184398E+04  d E =-.150550E-04
       N       E                     dE             d eps       ncg     rms          rms(c)
DAV:   1    -0.161843277172E+04   -0.27904E-05   -0.15626E-04 11992   0.175E-02    0.456E-03
DAV:   2    -0.161843277480E+04   -0.30817E-05   -0.27889E-06  6272   0.272E-03    0.235E-03
DAV:   3    -0.161843277644E+04   -0.16419E-05   -0.13610E-06  6272   0.224E-03    0.158E-03
DAV:   4    -0.161843277811E+04   -0.16655E-05   -0.69369E-07  6272   0.165E-03    0.578E-04
DAV:   5    -0.161843277901E+04   -0.89560E-06   -0.39291E-07  6272   0.106E-03
  23 F= -.16184328E+04 E0= -.16184398E+04  d E =-.105082E-04
       N       E                     dE             d eps       ncg     rms          rms(c)
DAV:   1    -0.161843279515E+04   -0.17037E-04   -0.16203E-03 12184   0.510E-02    0.502E-03
DAV:   2    -0.161843279502E+04    0.12767E-06   -0.89693E-06  6432   0.484E-03    0.366E-03
DAV:   3    -0.161843279440E+04    0.61678E-06   -0.34439E-06  6320   0.277E-03    0.112E-03
DAV:   4    -0.161843279429E+04    0.11571E-06   -0.16621E-06  6272   0.221E-03    0.543E-04
DAV:   5    -0.161843279441E+04   -0.11822E-06   -0.89924E-07  6272   0.162E-03
  24 F= -.16184328E+04 E0= -.16184398E+04  d E =-.153995E-04
       N       E                     dE             d eps       ncg     rms          rms(c)
DAV:   1    -0.161843282387E+04   -0.29581E-04   -0.15056E-02 12100   0.156E-01    0.152E-02
DAV:   2    -0.161843283453E+04   -0.10666E-04   -0.12760E-04 16688   0.146E-02    0.116E-02
DAV:   3    -0.161843283417E+04    0.36497E-06   -0.10476E-05  7238   0.549E-03    0.496E-03
DAV:   4    -0.161843283549E+04   -0.13189E-05   -0.49431E-06  6624   0.503E-03    0.168E-03
DAV:   5    -0.161843283517E+04    0.31503E-06   -0.13430E-06  6378   0.283E-03
  25 F= -.16184328E+04 E0= -.16184398E+04  d E =-.407677E-04
       N       E                     dE             d eps       ncg     rms          rms(c)
DAV:   1    -0.161843282120E+04    0.14291E-04   -0.59710E-03 12160   0.986E-02    0.110E-02
DAV:   2    -0.161843281528E+04    0.59143E-05   -0.32333E-05  8416   0.910E-03    0.746E-03
DAV:   3    -0.161843281103E+04    0.42486E-05   -0.97198E-06  6266   0.512E-03    0.403E-03
DAV:   4    -0.161843280757E+04    0.34633E-05   -0.48002E-06  6272   0.422E-03    0.105E-03
DAV:   5    -0.161843280750E+04    0.74476E-07   -0.21973E-06  6272   0.276E-03
  26 F= -.16184328E+04 E0= -.16184398E+04  d E =0.276768E-04
       N       E                     dE             d eps       ncg     rms          rms(c)
DAV:   1    -0.161843282626E+04   -0.18687E-04   -0.40182E-03 12160   0.805E-02    0.753E-03
DAV:   2    -0.161843282716E+04   -0.90344E-06   -0.18010E-05  6520   0.701E-03    0.549E-03
DAV:   3    -0.161843282708E+04    0.84613E-07   -0.61256E-06  6266   0.367E-03    0.118E-03
DAV:   4    -0.161843282736E+04   -0.28679E-06   -0.23337E-06  6272   0.274E-03    0.834E-04
DAV:   5    -0.161843282736E+04    0.58526E-09   -0.11787E-06  6272   0.193E-03
  27 F= -.16184328E+04 E0= -.16184398E+04  d E =-.198661E-04
       N       E                     dE             d eps       ncg     rms          rms(c)
DAV:   1    -0.161843284493E+04   -0.17565E-04   -0.10749E-02 12088   0.131E-01    0.126E-02
DAV:   2    -0.161843285200E+04   -0.70751E-05   -0.89908E-05 15248   0.123E-02    0.968E-03
DAV:   3    -0.161843285137E+04    0.63441E-06   -0.10915E-05  6636   0.527E-03    0.258E-03
DAV:   4    -0.161843285204E+04   -0.67214E-06   -0.30065E-06  6344   0.402E-03    0.156E-03
DAV:   5    -0.161843285179E+04    0.24837E-06   -0.10266E-06  6272   0.235E-03
  28 F= -.16184329E+04 E0= -.16184399E+04  d E =-.244304E-04
       N       E                     dE             d eps       ncg     rms          rms(c)
DAV:   1    -0.161843285439E+04   -0.23469E-05   -0.92642E-05 11820   0.126E-02    0.216E-03
DAV:   2    -0.161843285267E+04    0.17143E-05   -0.12737E-06  6254   0.174E-03    0.123E-03
DAV:   3    -0.161843285199E+04    0.68420E-06   -0.50246E-07  6254   0.128E-03    0.834E-04
DAV:   4    -0.161843285110E+04    0.89054E-06   -0.27181E-07  6254   0.936E-04    0.322E-04
DAV:   5    -0.161843285077E+04    0.33021E-06   -0.15568E-07  6254   0.673E-04
  29 F= -.16184329E+04 E0= -.16184399E+04  d E =0.102395E-05
       N       E                     dE             d eps       ncg     rms          rms(c)
DAV:   1    -0.161843285128E+04   -0.17718E-06   -0.10482E-04 11872   0.132E-02    0.189E-03
DAV:   2    -0.161843285250E+04   -0.12207E-05   -0.86108E-07  6236   0.150E-03    0.116E-03
DAV:   3    -0.161843285310E+04   -0.60441E-06   -0.33600E-07  6236   0.101E-03    0.743E-04
DAV:   4    -0.161843285378E+04   -0.68344E-06   -0.17930E-07  6236   0.794E-04    0.256E-04
DAV:   5    -0.161843285400E+04   -0.21911E-06   -0.97958E-08  6236   0.550E-04
  30 F= -.16184329E+04 E0= -.16184399E+04  d E =-.323502E-05
       N       E                     dE             d eps       ncg     rms          rms(c)
DAV:   1    -0.161843285606E+04   -0.22710E-05   -0.18465E-04 11960   0.172E-02    0.174E-03
DAV:   2    -0.161843285582E+04    0.23688E-06   -0.11632E-06  6236   0.175E-03    0.125E-03
DAV:   3    -0.161843285555E+04    0.27166E-06   -0.43246E-07  6236   0.101E-03    0.443E-04
DAV:   4    -0.161843285542E+04    0.12896E-06   -0.21728E-07  6236   0.821E-04    0.170E-04
DAV:   5    -0.161843285545E+04   -0.34621E-07   -0.11957E-07  6236   0.601E-04
  31 F= -.16184329E+04 E0= -.16184399E+04  d E =-.144897E-05
       N       E                     dE             d eps       ncg     rms          rms(c)
DAV:   1    -0.161843285630E+04   -0.88304E-06   -0.35544E-04 12074   0.240E-02    0.264E-03
DAV:   2    -0.161843285755E+04   -0.12522E-05   -0.21833E-06  6236   0.241E-03    0.181E-03
DAV:   3    -0.161843285826E+04   -0.70711E-06   -0.79685E-07  6230   0.145E-03    0.104E-03
DAV:   4    -0.161843285900E+04   -0.74216E-06   -0.43730E-07  6236   0.120E-03    0.284E-04
DAV:   5    -0.161843285909E+04   -0.86428E-07   -0.22968E-07  6230   0.850E-04
  32 F= -.16184329E+04 E0= -.16184399E+04  d E =-.363633E-05
       N       E                     dE             d eps       ncg     rms          rms(c)
DAV:   1    -0.161843286033E+04   -0.13262E-05   -0.14564E-05  6236   0.571E-03    0.143E-03
DAV:   2    -0.161843285895E+04    0.13776E-05   -0.80930E-07  6236   0.191E-03    0.738E-04
DAV:   3    -0.161843285828E+04    0.67367E-06   -0.12158E-07  6236   0.764E-04    0.572E-04
DAV:   4    -0.161843285753E+04    0.74934E-06   -0.58989E-08  6236   0.599E-04    0.194E-04
DAV:   5    -0.161843285719E+04    0.34183E-06   -0.29631E-08  6236   0.266E-04
  33 F= -.16184329E+04 E0= -.16184399E+04  d E =0.190269E-05
       N       E                     dE             d eps       ncg     rms          rms(c)
DAV:   1    -0.161843285831E+04   -0.77953E-06   -0.14381E-04 11936   0.152E-02    0.145E-03
DAV:   2    -0.161843285846E+04   -0.14895E-06   -0.82585E-07  6236   0.146E-03    0.106E-03
DAV:   3    -0.161843285858E+04   -0.12094E-06   -0.29130E-07  6236   0.808E-04    0.319E-04
DAV:   4    -0.161843285864E+04   -0.62053E-07   -0.13682E-07  6236   0.642E-04    0.169E-04
DAV:   5    -0.161843285863E+04    0.12188E-07   -0.73152E-08  6236   0.451E-04
  34 F= -.16184329E+04 E0= -.16184399E+04  d E =-.144112E-05
       N       E                     dE             d eps       ncg     rms          rms(c)
DAV:   1    -0.161843286184E+04   -0.31995E-05   -0.15758E-03 12136   0.503E-02    0.484E-03
DAV:   2    -0.161843286161E+04    0.22681E-06   -0.83743E-06  6236   0.469E-03    0.354E-03
DAV:   3    -0.161843286090E+04    0.71191E-06   -0.31219E-06  6218   0.261E-03    0.901E-04
DAV:   4    -0.161843286081E+04    0.89871E-07   -0.14184E-06  6236   0.204E-03    0.502E-04
DAV:   5    -0.161843286092E+04   -0.10863E-06   -0.76312E-07  6236   0.153E-03
  35 F= -.16184329E+04 E0= -.16184399E+04  d E =-.229173E-05
