       N       E                     dE             d eps       ncg     rms          rms(c)
DAV:   1     0.237732679336E+04    0.23773E+04   -0.29922E+05 11928   0.144E+03
DAV:   2    -0.119858557511E+04   -0.35759E+04   -0.34274E+04 13788   0.314E+02
DAV:   3    -0.165513621486E+04   -0.45655E+03   -0.42648E+03 18328   0.819E+01
DAV:   4    -0.167982188992E+04   -0.24686E+02   -0.23384E+02 16728   0.177E+01
DAV:   5    -0.168085486034E+04   -0.10330E+01   -0.10161E+01 18512   0.399E+00    0.421E+01
DAV:   6    -0.163197755516E+04    0.48877E+02   -0.88031E+01 17704   0.121E+01    0.223E+01
DAV:   7    -0.161849224756E+04    0.13485E+02   -0.68957E+01 16912   0.125E+01    0.132E+01
DAV:   8    -0.161061990778E+04    0.78723E+01   -0.36875E+01 17760   0.114E+01    0.590E+00
DAV:   9    -0.160881586195E+04    0.18040E+01   -0.12420E+01 17856   0.580E+00    0.201E+00
DAV:  10    -0.160885475195E+04   -0.38890E-01   -0.20384E+00 16128   0.203E+00    0.145E+00
DAV:  11    -0.160882868296E+04    0.26069E-01   -0.31719E-01 15904   0.785E-01    0.796E-01
DAV:  12    -0.160881924724E+04    0.94357E-02   -0.10817E-01 15536   0.552E-01    0.461E-01
DAV:  13    -0.160881139048E+04    0.78568E-02   -0.34719E-02 16856   0.344E-01    0.241E-01
DAV:  14    -0.160880940240E+04    0.19881E-02   -0.13695E-02 14560   0.163E-01    0.677E-02
DAV:  15    -0.160880946247E+04   -0.60074E-04   -0.22950E-03 15688   0.745E-02    0.415E-02
DAV:  16    -0.160880943119E+04    0.31283E-04   -0.43271E-04 16616   0.345E-02    0.254E-02
DAV:  17    -0.160880939329E+04    0.37898E-04   -0.14452E-04 15856   0.221E-02    0.122E-02
DAV:  18    -0.160880938118E+04    0.12112E-04   -0.42105E-05  9568   0.104E-02    0.677E-03
DAV:  19    -0.160880937477E+04    0.64103E-05   -0.14840E-05  7568   0.670E-03
   1 F= -.16088094E+04 E0= -.16087776E+04  d E =-.160881E+04
       N       E                     dE             d eps       ncg     rms          rms(c)
DAV:   1    -0.161208655250E+04   -0.32772E+01   -0.95607E+02 11928   0.448E+01    0.152E+01
DAV:   2    -0.160174373291E+04    0.10343E+02   -0.43053E+01 17784   0.805E+00    0.721E+00
DAV:   3    -0.159970191691E+04    0.20418E+01   -0.15708E+01 18008   0.502E+00    0.481E+00
DAV:   4    -0.159886153718E+04    0.84038E+00   -0.50735E+00 19096   0.385E+00    0.304E+00
DAV:   5    -0.159833888524E+04    0.52265E+00   -0.29909E+00 18208   0.278E+00    0.101E+00
DAV:   6    -0.159831640255E+04    0.22483E-01   -0.59599E-01 15824   0.119E+00    0.645E-01
DAV:   7    -0.159831671969E+04   -0.31714E-03   -0.10042E-01 16840   0.436E-01    0.447E-01
DAV:   8    -0.159831637851E+04    0.34118E-03   -0.35947E-02 17288   0.240E-01    0.224E-01
DAV:   9    -0.159831931600E+04   -0.29375E-02   -0.19153E-02 16072   0.169E-01    0.181E-01
DAV:  10    -0.159831794367E+04    0.13723E-02   -0.51917E-03 15968   0.103E-01    0.713E-02
DAV:  11    -0.159831788615E+04    0.57521E-04   -0.17176E-03 18544   0.546E-02    0.399E-02
DAV:  12    -0.159831790350E+04   -0.17358E-04   -0.55179E-04 16512   0.346E-02    0.273E-02
DAV:  13    -0.159831790815E+04   -0.46423E-05   -0.16133E-04 15296   0.163E-02    0.107E-02
DAV:  14    -0.159831791178E+04   -0.36355E-05   -0.25443E-05  7904   0.771E-03
   2 F= -.15983179E+04 E0= -.15983329E+04  d E =0.104915E+02
       N       E                     dE             d eps       ncg     rms          rms(c)
DAV:   1    -0.161938986135E+04   -0.21072E+02   -0.36450E+02 11928   0.312E+01    0.108E+01
DAV:   2    -0.161382216596E+04    0.55677E+01   -0.11779E+01 14692   0.495E+00    0.478E+00
DAV:   3    -0.161273226194E+04    0.10899E+01   -0.32695E+00 14992   0.264E+00    0.259E+00
DAV:   4    -0.161244243504E+04    0.28983E+00   -0.15637E+00 16712   0.241E+00    0.145E+00
DAV:   5    -0.161230396678E+04    0.13847E+00   -0.75670E-01 16352   0.159E+00    0.389E-01
DAV:   6    -0.161230965093E+04   -0.56842E-02   -0.13754E-01 15056   0.566E-01    0.292E-01
DAV:   7    -0.161231254178E+04   -0.28908E-02   -0.20352E-02 15536   0.206E-01    0.176E-01
DAV:   8    -0.161231480177E+04   -0.22600E-02   -0.60968E-03 15248   0.118E-01    0.920E-02
DAV:   9    -0.161231578881E+04   -0.98704E-03   -0.22998E-03 13960   0.713E-02    0.510E-02
DAV:  10    -0.161231606668E+04   -0.27787E-03   -0.12037E-03 15528   0.473E-02    0.257E-02
DAV:  11    -0.161231616984E+04   -0.10317E-03   -0.17759E-04 15272   0.217E-02    0.196E-02
DAV:  12    -0.161231619021E+04   -0.20365E-04   -0.53311E-05 12064   0.128E-02    0.105E-02
DAV:  13    -0.161231618486E+04    0.53512E-05   -0.24500E-05  7544   0.688E-03
   3 F= -.16123162E+04 E0= -.16123107E+04  d E =-.139983E+02
       N       E                     dE             d eps       ncg     rms          rms(c)
DAV:   1    -0.161235234083E+04   -0.36151E-01   -0.54116E+00 11928   0.301E+00    0.430E-01
DAV:   2    -0.161235473553E+04   -0.23947E-02   -0.10257E-01 17736   0.441E-01    0.273E-01
DAV:   3    -0.161235284795E+04    0.18876E-02   -0.20029E-02 18920   0.246E-01    0.201E-01
DAV:   4    -0.161235163791E+04    0.12100E-02   -0.50889E-03 19168   0.120E-01    0.121E-01
DAV:   5    -0.161235118097E+04    0.45695E-03   -0.29685E-03 16352   0.804E-02    0.399E-02
DAV:   6    -0.161235114542E+04    0.35548E-04   -0.59316E-04 15496   0.387E-02    0.231E-02
DAV:   7    -0.161235114335E+04    0.20694E-05   -0.11042E-04 14368   0.179E-02    0.161E-02
DAV:   8    -0.161235114301E+04    0.34108E-06   -0.35676E-05  9016   0.105E-02
   4 F= -.16123511E+04 E0= -.16123462E+04  d E =-.349582E-01
       N       E                     dE             d eps       ncg     rms          rms(c)
DAV:   1    -0.161235466657E+04   -0.35232E-02   -0.54704E-01 12036   0.955E-01    0.114E-01
DAV:   2    -0.161235509525E+04   -0.42867E-03   -0.75608E-03 17560   0.132E-01    0.849E-02
DAV:   3    -0.161235486112E+04    0.23413E-03   -0.16640E-03 18344   0.738E-02    0.614E-02
DAV:   4    -0.161235478731E+04    0.73809E-04   -0.45285E-04 16944   0.332E-02    0.307E-02
DAV:   5    -0.161235478225E+04    0.50542E-05   -0.22947E-04 15240   0.231E-02    0.972E-03
DAV:   6    -0.161235477901E+04    0.32402E-05   -0.33452E-05  8944   0.106E-02
   5 F= -.16123548E+04 E0= -.16123500E+04  d E =-.363600E-02
       N       E                     dE             d eps       ncg     rms          rms(c)
DAV:   1    -0.161235612374E+04   -0.13415E-02   -0.82272E-02 12102   0.406E-01    0.106E-01
DAV:   2    -0.161235559429E+04    0.52945E-03   -0.17491E-03 16744   0.624E-02    0.523E-02
DAV:   3    -0.161235549519E+04    0.99094E-04   -0.73531E-04 18902   0.473E-02    0.405E-02
DAV:   4    -0.161235536991E+04    0.12528E-03   -0.28489E-04 18632   0.308E-02    0.187E-02
DAV:   5    -0.161235532672E+04    0.43186E-04   -0.12890E-04 14088   0.169E-02    0.647E-03
DAV:   6    -0.161235532481E+04    0.19115E-05   -0.14397E-05  6904   0.702E-03
   6 F= -.16123553E+04 E0= -.16123509E+04  d E =-.545801E-03
       N       E                     dE             d eps       ncg     rms          rms(c)
DAV:   1    -0.161235652931E+04   -0.12026E-02   -0.70218E-02 12056   0.354E-01    0.657E-02
DAV:   2    -0.161235647516E+04    0.54150E-04   -0.93158E-04 17136   0.454E-02    0.373E-02
DAV:   3    -0.161235646006E+04    0.15105E-04   -0.31347E-04 19174   0.319E-02    0.290E-02
DAV:   4    -0.161235644373E+04    0.16330E-04   -0.10863E-04 15656   0.186E-02    0.116E-02
DAV:   5    -0.161235645666E+04   -0.12932E-04   -0.45302E-05 11038   0.105E-02    0.440E-03
DAV:   6    -0.161235645662E+04    0.43186E-07   -0.58220E-06  6688   0.507E-03
   7 F= -.16123565E+04 E0= -.16123519E+04  d E =-.113180E-02
       N       E                     dE             d eps       ncg     rms          rms(c)
DAV:   1    -0.161235703418E+04   -0.57752E-03   -0.64410E-02 12012   0.324E-01    0.355E-02
DAV:   2    -0.161235705939E+04   -0.25210E-04   -0.62907E-04 17424   0.379E-02    0.274E-02
DAV:   3    -0.161235703694E+04    0.22449E-04   -0.12451E-04 16012   0.214E-02    0.206E-02
DAV:   4    -0.161235701902E+04    0.17923E-04   -0.36026E-05  9472   0.975E-03    0.729E-03
DAV:   5    -0.161235701500E+04    0.40204E-05   -0.11429E-05  6850   0.664E-03
   8 F= -.16123570E+04 E0= -.16123525E+04  d E =-.558382E-03
       N       E                     dE             d eps       ncg     rms          rms(c)
DAV:   1    -0.161235740557E+04   -0.38655E-03   -0.51870E-02 12020   0.293E-01    0.340E-02
DAV:   2    -0.161235743560E+04   -0.30022E-04   -0.47692E-04 17424   0.303E-02    0.236E-02
DAV:   3    -0.161235743057E+04    0.50286E-05   -0.69148E-05 13636   0.160E-02    0.181E-02
DAV:   4    -0.161235743229E+04   -0.17198E-05   -0.28197E-05  8224   0.971E-03    0.529E-03
DAV:   5    -0.161235743638E+04   -0.40937E-05   -0.93375E-06  6576   0.572E-03
   9 F= -.16123574E+04 E0= -.16123529E+04  d E =-.421380E-03
       N       E                     dE             d eps       ncg     rms          rms(c)
DAV:   1    -0.161235761105E+04   -0.17876E-03   -0.44772E-03 12096   0.933E-02    0.231E-02
DAV:   2    -0.161235757036E+04    0.40686E-04   -0.72589E-05 13304   0.119E-02    0.110E-02
DAV:   3    -0.161235755569E+04    0.14675E-04   -0.16284E-05  7752   0.760E-03    0.652E-03
DAV:   4    -0.161235754761E+04    0.80801E-05   -0.53628E-06  6632   0.611E-03    0.341E-03
DAV:   5    -0.161235754178E+04    0.58285E-05   -0.42279E-06  6312   0.380E-03
  10 F= -.16123575E+04 E0= -.16123530E+04  d E =-.105397E-03
       N       E                     dE             d eps       ncg     rms          rms(c)
DAV:   1    -0.161235781386E+04   -0.26625E-03   -0.29103E-02 11996   0.218E-01    0.220E-02
DAV:   2    -0.161235783268E+04   -0.18825E-04   -0.24587E-04 17456   0.206E-02    0.166E-02
DAV:   3    -0.161235783028E+04    0.24006E-05   -0.16824E-05  8456   0.882E-03    0.124E-02
DAV:   4    -0.161235783128E+04   -0.10006E-05   -0.17988E-05  6776   0.772E-03    0.221E-03
DAV:   5    -0.161235783118E+04    0.10558E-06   -0.36793E-06  6332   0.460E-03
  11 F= -.16123578E+04 E0= -.16123533E+04  d E =-.289401E-03
       N       E                     dE             d eps       ncg     rms          rms(c)
DAV:   1    -0.161235810995E+04   -0.27867E-03   -0.39008E-02 11992   0.252E-01    0.259E-02
DAV:   2    -0.161235811687E+04   -0.69173E-05   -0.33171E-04 17432   0.239E-02    0.189E-02
DAV:   3    -0.161235810796E+04    0.89061E-05   -0.24343E-05  8814   0.994E-03    0.134E-02
DAV:   4    -0.161235809643E+04    0.11528E-04   -0.17459E-05  7664   0.900E-03    0.366E-03
DAV:   5    -0.161235809478E+04    0.16501E-05   -0.62623E-06  6368   0.568E-03
  12 F= -.16123581E+04 E0= -.16123536E+04  d E =-.263604E-03
       N       E                     dE             d eps       ncg     rms          rms(c)
DAV:   1    -0.161235813933E+04   -0.42894E-04   -0.15630E-03 12096   0.565E-02    0.148E-02
DAV:   2    -0.161235814265E+04   -0.33202E-05   -0.21039E-05  6392   0.719E-03    0.703E-03
DAV:   3    -0.161235814922E+04   -0.65763E-05   -0.91930E-06  6320   0.525E-03    0.328E-03
DAV:   4    -0.161235815204E+04   -0.28124E-05   -0.37455E-06  6264   0.435E-03    0.175E-03
DAV:   5    -0.161235815453E+04   -0.24911E-05   -0.17628E-06  6256   0.258E-03
  13 F= -.16123582E+04 E0= -.16123536E+04  d E =-.597444E-04
       N       E                     dE             d eps       ncg     rms          rms(c)
DAV:   1    -0.161235832614E+04   -0.17411E-03   -0.16141E-02 11998   0.162E-01    0.175E-02
DAV:   2    -0.161235832499E+04    0.11493E-05   -0.14136E-04 16840   0.152E-02    0.124E-02
DAV:   3    -0.161235831848E+04    0.65081E-05   -0.10456E-05  7260   0.591E-03    0.747E-03
DAV:   4    -0.161235831330E+04    0.51857E-05   -0.61267E-06  6576   0.594E-03    0.261E-03
DAV:   5    -0.161235831196E+04    0.13411E-05   -0.25216E-06  6256   0.380E-03
  14 F= -.16123583E+04 E0= -.16123538E+04  d E =-.157430E-03
       N       E                     dE             d eps       ncg     rms          rms(c)
DAV:   1    -0.161235845143E+04   -0.13813E-03   -0.16766E-02 11960   0.165E-01    0.162E-02
DAV:   2    -0.161235846322E+04   -0.11795E-04   -0.13857E-04 16856   0.151E-02    0.122E-02
DAV:   3    -0.161235846297E+04    0.25238E-06   -0.10958E-05  7146   0.571E-03    0.505E-03
DAV:   4    -0.161235846460E+04   -0.16247E-05   -0.50484E-06  6488   0.538E-03    0.188E-03
DAV:   5    -0.161235846425E+04    0.34232E-06   -0.14514E-06  6238   0.321E-03
  15 F= -.16123585E+04 E0= -.16123539E+04  d E =-.152297E-03
       N       E                     dE             d eps       ncg     rms          rms(c)
DAV:   1    -0.161235855504E+04   -0.90443E-04   -0.65684E-03 12008   0.105E-01    0.140E-02
DAV:   2    -0.161235854394E+04    0.11099E-04   -0.58339E-05 12720   0.103E-02    0.846E-03
DAV:   3    -0.161235853712E+04    0.68242E-05   -0.91859E-06  6452   0.516E-03    0.466E-03
DAV:   4    -0.161235853296E+04    0.41534E-05   -0.34595E-06  6240   0.413E-03    0.223E-03
DAV:   5    -0.161235853101E+04    0.19494E-05   -0.18916E-06  6240   0.308E-03
  16 F= -.16123585E+04 E0= -.16123540E+04  d E =-.667585E-04
       N       E                     dE             d eps       ncg     rms          rms(c)
DAV:   1    -0.161235859421E+04   -0.61250E-04   -0.41411E-03 11988   0.832E-02    0.114E-02
DAV:   2    -0.161235859938E+04   -0.51730E-05   -0.27982E-05  8400   0.811E-03    0.686E-03
DAV:   3    -0.161235860386E+04   -0.44747E-05   -0.10045E-05  6278   0.471E-03    0.278E-03
DAV:   4    -0.161235860643E+04   -0.25663E-05   -0.45536E-06  6240   0.372E-03    0.162E-03
DAV:   5    -0.161235860726E+04   -0.83007E-06   -0.23590E-06  6240   0.289E-03
  17 F= -.16123586E+04 E0= -.16123541E+04  d E =-.762437E-04
       N       E                     dE             d eps       ncg     rms          rms(c)
DAV:   1    -0.161235868915E+04   -0.82725E-04   -0.77930E-03 11960   0.112E-01    0.117E-02
DAV:   2    -0.161235868904E+04    0.11295E-06   -0.69057E-05 13736   0.107E-02    0.864E-03
DAV:   3    -0.161235868502E+04    0.40223E-05   -0.84595E-06  6344   0.474E-03    0.378E-03
DAV:   4    -0.161235868303E+04    0.19889E-05   -0.30617E-06  6240   0.361E-03    0.127E-03
DAV:   5    -0.161235868297E+04    0.56530E-07   -0.11454E-06  6240   0.255E-03
  18 F= -.16123587E+04 E0= -.16123542E+04  d E =-.757139E-04
       N       E                     dE             d eps       ncg     rms          rms(c)
DAV:   1    -0.161235873360E+04   -0.50577E-04   -0.43082E-03 11972   0.839E-02    0.910E-03
DAV:   2    -0.161235873789E+04   -0.42824E-05   -0.25125E-05  8144   0.783E-03    0.618E-03
DAV:   3    -0.161235874089E+04   -0.30060E-05   -0.90660E-06  6270   0.434E-03    0.206E-03
DAV:   4    -0.161235874254E+04   -0.16485E-05   -0.41924E-06  6240   0.338E-03    0.109E-03
DAV:   5    -0.161235874274E+04   -0.19808E-06   -0.22215E-06  6240   0.267E-03
  19 F= -.16123587E+04 E0= -.16123542E+04  d E =-.597690E-04
       N       E                     dE             d eps       ncg     rms          rms(c)
DAV:   1    -0.161235879529E+04   -0.52750E-04   -0.38040E-03 11968   0.790E-02    0.974E-03
DAV:   2    -0.161235878934E+04    0.59545E-05   -0.26854E-05  8136   0.795E-03    0.620E-03
DAV:   3    -0.161235878512E+04    0.42151E-05   -0.91024E-06  6244   0.458E-03    0.261E-03
DAV:   4    -0.161235878334E+04    0.17779E-05   -0.43759E-06  6216   0.359E-03    0.134E-03
DAV:   5    -0.161235878307E+04    0.27549E-06   -0.23297E-06  6214   0.287E-03
  20 F= -.16123588E+04 E0= -.16123543E+04  d E =-.403290E-04
       N       E                     dE             d eps       ncg     rms          rms(c)
DAV:   1    -0.161235881664E+04   -0.33297E-04   -0.24283E-03 11972   0.631E-02    0.761E-03
DAV:   2    -0.161235882039E+04   -0.37485E-05   -0.16323E-05  6936   0.637E-03    0.497E-03
DAV:   3    -0.161235882326E+04   -0.28733E-05   -0.65093E-06  6196   0.384E-03    0.187E-03
DAV:   4    -0.161235882479E+04   -0.15282E-05   -0.31873E-06  6168   0.304E-03    0.105E-03
DAV:   5    -0.161235882513E+04   -0.33862E-06   -0.17525E-06  6168   0.241E-03
  21 F= -.16123588E+04 E0= -.16123543E+04  d E =-.420609E-04
       N       E                     dE             d eps       ncg     rms          rms(c)
DAV:   1    -0.161235886830E+04   -0.43511E-04   -0.38069E-03 11964   0.786E-02    0.820E-03
DAV:   2    -0.161235886658E+04    0.17192E-05   -0.23842E-05  8072   0.763E-03    0.577E-03
DAV:   3    -0.161235886414E+04    0.24413E-05   -0.86073E-06  6300   0.433E-03    0.179E-03
DAV:   4    -0.161235886361E+04    0.52857E-06   -0.41182E-06  6192   0.329E-03    0.818E-04
DAV:   5    -0.161235886384E+04   -0.22565E-06   -0.22233E-06  6192   0.263E-03
  22 F= -.16123589E+04 E0= -.16123543E+04  d E =-.387085E-04
       N       E                     dE             d eps       ncg     rms          rms(c)
DAV:   1    -0.161235889427E+04   -0.30662E-04   -0.32166E-03 11964   0.725E-02    0.818E-03
DAV:   2    -0.161235889822E+04   -0.39489E-05   -0.20931E-05  7448   0.723E-03    0.550E-03
DAV:   3    -0.161235890105E+04   -0.28250E-05   -0.80298E-06  6252   0.426E-03    0.199E-03
DAV:   4    -0.161235890262E+04   -0.15686E-05   -0.39173E-06  6144   0.340E-03    0.106E-03
DAV:   5    -0.161235890289E+04   -0.27318E-06   -0.21644E-06  6144   0.269E-03
  23 F= -.16123589E+04 E0= -.16123544E+04  d E =-.390522E-04
       N       E                     dE             d eps       ncg     rms          rms(c)
DAV:   1    -0.161235892482E+04   -0.22205E-04   -0.84241E-04 11976   0.376E-02    0.576E-03
DAV:   2    -0.161235892025E+04    0.45732E-05   -0.74896E-06  6096   0.428E-03    0.330E-03
DAV:   3    -0.161235891755E+04    0.26962E-05   -0.31282E-06  6084   0.278E-03    0.146E-03
DAV:   4    -0.161235891631E+04    0.12462E-05   -0.15740E-06  6090   0.215E-03    0.860E-04
DAV:   5    -0.161235891588E+04    0.43074E-06   -0.87700E-07  6090   0.172E-03
  24 F= -.16123589E+04 E0= -.16123544E+04  d E =-.129859E-04
       N       E                     dE             d eps       ncg     rms          rms(c)
DAV:   1    -0.161235894231E+04   -0.26009E-04   -0.25646E-03 11960   0.644E-02    0.645E-03
DAV:   2    -0.161235894411E+04   -0.17957E-05   -0.14864E-05  7458   0.614E-03    0.467E-03
DAV:   3    -0.161235894525E+04   -0.11367E-05   -0.60010E-06  6242   0.359E-03    0.104E-03
DAV:   4    -0.161235894580E+04   -0.55286E-06   -0.27240E-06  6138   0.273E-03    0.661E-04
DAV:   5    -0.161235894583E+04   -0.28674E-07   -0.15136E-06  6136   0.212E-03
  25 F= -.16123589E+04 E0= -.16123544E+04  d E =-.299535E-04
       N       E                     dE             d eps       ncg     rms          rms(c)
DAV:   1    -0.161235898602E+04   -0.40219E-04   -0.65623E-03 11952   0.103E-01    0.108E-02
DAV:   2    -0.161235898461E+04    0.14118E-05   -0.56193E-05 12464   0.991E-03    0.782E-03
DAV:   3    -0.161235898084E+04    0.37651E-05   -0.81999E-06  6364   0.470E-03    0.349E-03
DAV:   4    -0.161235897875E+04    0.20883E-05   -0.29886E-06  6216   0.336E-03    0.110E-03
DAV:   5    -0.161235897872E+04    0.36529E-07   -0.12056E-06  6212   0.247E-03
  26 F= -.16123590E+04 E0= -.16123545E+04  d E =-.328886E-04
       N       E                     dE             d eps       ncg     rms          rms(c)
DAV:   1    -0.161235896990E+04    0.88581E-05   -0.41173E-04 11968   0.274E-02    0.565E-03
DAV:   2    -0.161235897317E+04   -0.32753E-05   -0.34432E-06  6060   0.305E-03    0.282E-03
DAV:   3    -0.161235897590E+04   -0.27308E-05   -0.13640E-06  6048   0.189E-03    0.121E-03
DAV:   4    -0.161235897706E+04   -0.11552E-05   -0.47876E-07  6060   0.144E-03    0.736E-04
DAV:   5    -0.161235897781E+04   -0.75757E-06   -0.20350E-07  6060   0.977E-04
  27 F= -.16123590E+04 E0= -.16123545E+04  d E =0.902635E-06
       N       E                     dE             d eps       ncg     rms          rms(c)
DAV:   1    -0.161235900220E+04   -0.25140E-04   -0.28833E-03 11960   0.684E-02    0.647E-03
DAV:   2    -0.161235900237E+04   -0.17405E-06   -0.14270E-05  6104   0.610E-03    0.471E-03
DAV:   3    -0.161235900163E+04    0.74297E-06   -0.52388E-06  6082   0.329E-03    0.913E-04
DAV:   4    -0.161235900174E+04   -0.11064E-06   -0.21565E-06  6072   0.239E-03    0.632E-04
DAV:   5    -0.161235900184E+04   -0.10406E-06   -0.11415E-06  6072   0.185E-03
  28 F= -.16123590E+04 E0= -.16123545E+04  d E =-.240277E-04
       N       E                     dE             d eps       ncg     rms          rms(c)
DAV:   1    -0.161235905824E+04   -0.56499E-04   -0.41765E-02 11928   0.260E-01    0.248E-02
DAV:   2    -0.161235907994E+04   -0.21700E-04   -0.34616E-04 17520   0.238E-02    0.190E-02
DAV:   3    -0.161235907085E+04    0.90912E-05   -0.30863E-05  8698   0.879E-03    0.538E-03
DAV:   4    -0.161235907077E+04    0.76584E-07   -0.84127E-06  7072   0.694E-03    0.290E-03
DAV:   5    -0.161235907039E+04    0.38100E-06   -0.22419E-06  6364   0.379E-03
  29 F= -.16123591E+04 E0= -.16123545E+04  d E =-.685458E-04
       N       E                     dE             d eps       ncg     rms          rms(c)
DAV:   1    -0.161235908857E+04   -0.17803E-04   -0.57866E-03 11940   0.976E-02    0.117E-02
DAV:   2    -0.161235908185E+04    0.67250E-05   -0.47513E-05 11264   0.947E-03    0.752E-03
DAV:   3    -0.161235907682E+04    0.50261E-05   -0.88725E-06  6430   0.494E-03    0.385E-03
DAV:   4    -0.161235907361E+04    0.32154E-05   -0.35454E-06  6240   0.369E-03    0.161E-03
DAV:   5    -0.161235907281E+04    0.79546E-06   -0.17455E-06  6232   0.288E-03
  30 F= -.16123591E+04 E0= -.16123546E+04  d E =-.242247E-05
       N       E                     dE             d eps       ncg     rms          rms(c)
DAV:   1    -0.161235906884E+04    0.47678E-05   -0.13123E-03 11956   0.475E-02    0.768E-03
DAV:   2    -0.161235907255E+04   -0.37138E-05   -0.84532E-06  6060   0.479E-03    0.416E-03
DAV:   3    -0.161235907586E+04   -0.33103E-05   -0.30005E-06  6046   0.273E-03    0.177E-03
DAV:   4    -0.161235907746E+04   -0.15965E-05   -0.11280E-06  6060   0.207E-03    0.107E-03
DAV:   5    -0.161235907825E+04   -0.78978E-06   -0.50544E-07  6060   0.151E-03
  31 F= -.16123591E+04 E0= -.16123546E+04  d E =-.543806E-05
       N       E                     dE             d eps       ncg     rms          rms(c)
DAV:   1    -0.161235908323E+04   -0.57712E-05   -0.62034E-04 11968   0.318E-02    0.289E-03
DAV:   2    -0.161235908327E+04   -0.41312E-07   -0.27856E-06  6054   0.274E-03    0.211E-03
DAV:   3    -0.161235908312E+04    0.14696E-06   -0.88555E-07  6046   0.142E-03    0.609E-04
DAV:   4    -0.161235908312E+04    0.95429E-08   -0.38093E-07  6030   0.113E-03    0.333E-04
DAV:   5    -0.161235908312E+04   -0.94615E-08   -0.19146E-07  6030   0.805E-04
  32 F= -.16123591E+04 E0= -.16123546E+04  d E =-.487565E-05
       N       E                     dE             d eps       ncg     rms          rms(c)
DAV:   1    -0.161235909327E+04   -0.10152E-04   -0.59324E-03 11940   0.980E-02    0.936E-03
DAV:   2    -0.161235909459E+04   -0.13247E-05   -0.36609E-05  9712   0.896E-03    0.696E-03
DAV:   3    -0.161235909334E+04    0.12528E-05   -0.10495E-05  6270   0.490E-03    0.145E-03
DAV:   4    -0.161235909354E+04   -0.20177E-06   -0.37701E-06  6216   0.345E-03    0.991E-04
DAV:   5    -0.161235909369E+04   -0.14743E-06   -0.19116E-06  6196   0.250E-03
  33 F= -.16123591E+04 E0= -.16123546E+04  d E =-.105641E-04
       N       E                     dE             d eps       ncg     rms          rms(c)
DAV:   1    -0.161235909600E+04   -0.24605E-05   -0.85990E-04 11956   0.372E-02    0.354E-03
DAV:   2    -0.161235909641E+04   -0.40897E-06   -0.59911E-06  6036   0.379E-03    0.263E-03
DAV:   3    -0.161235909648E+04   -0.64502E-07   -0.25030E-06  6032   0.233E-03    0.628E-04
DAV:   4    -0.161235909660E+04   -0.12185E-06   -0.12324E-06  6036   0.179E-03    0.374E-04
DAV:   5    -0.161235909665E+04   -0.57313E-07   -0.70220E-07  6036   0.144E-03
  34 F= -.16123591E+04 E0= -.16123546E+04  d E =-.296573E-05
