       N       E                     dE             d eps       ncg     rms          rms(c)
DAV:   1     0.193962099473E+04    0.19396E+04   -0.27680E+05 11172   0.142E+03
DAV:   2    -0.118437006028E+04   -0.31240E+04   -0.30025E+04 12886   0.266E+02
DAV:   3    -0.157680275430E+04   -0.39243E+03   -0.35659E+03 17536   0.824E+01
DAV:   4    -0.160188140474E+04   -0.25079E+02   -0.22649E+02 15784   0.162E+01
DAV:   5    -0.160304087101E+04   -0.11595E+01   -0.11295E+01 16720   0.449E+00    0.375E+01
DAV:   6    -0.156550409101E+04    0.37537E+02   -0.77289E+01 16968   0.120E+01    0.214E+01
DAV:   7    -0.155934776529E+04    0.61563E+01   -0.79211E+01 17312   0.141E+01    0.175E+01
DAV:   8    -0.154689514640E+04    0.12453E+02   -0.54053E+01 16432   0.116E+01    0.987E+00
DAV:   9    -0.154192404545E+04    0.49711E+01   -0.23566E+01 16416   0.740E+00    0.286E+00
DAV:  10    -0.154182018821E+04    0.10386E+00   -0.43165E+00 15800   0.290E+00    0.136E+00
DAV:  11    -0.154182218375E+04   -0.19955E-02   -0.48044E-01 14664   0.104E+00    0.102E+00
DAV:  12    -0.154180315175E+04    0.19032E-01   -0.15908E-01 14960   0.600E-01    0.622E-01
DAV:  13    -0.154179028618E+04    0.12866E-01   -0.65852E-02 14160   0.409E-01    0.338E-01
DAV:  14    -0.154178624531E+04    0.40409E-02   -0.18410E-02 13952   0.190E-01    0.144E-01
DAV:  15    -0.154178603059E+04    0.21472E-03   -0.46017E-03 15296   0.104E-01    0.870E-02
DAV:  16    -0.154178591532E+04    0.11527E-03   -0.13406E-03 15872   0.595E-02    0.589E-02
DAV:  17    -0.154178582886E+04    0.86463E-04   -0.58547E-04 14504   0.371E-02    0.295E-02
DAV:  18    -0.154178582352E+04    0.53335E-05   -0.21486E-04 14472   0.213E-02    0.128E-02
DAV:  19    -0.154178581845E+04    0.50763E-05   -0.45557E-05  9304   0.119E-02
   1 F= -.15417858E+04 E0= -.15417837E+04  d E =-.154179E+04
       N       E                     dE             d eps       ncg     rms          rms(c)
DAV:   1    -0.154670075740E+04   -0.49149E+01   -0.26865E+03 11172   0.800E+01    0.282E+01
DAV:   2    -0.151764969927E+04    0.29051E+02   -0.18983E+02 18200   0.182E+01    0.191E+01
DAV:   3    -0.151052630815E+04    0.71234E+01   -0.10459E+02 19008   0.138E+01    0.151E+01
DAV:   4    -0.150215705144E+04    0.83693E+01   -0.44323E+01 20096   0.890E+00    0.104E+01
DAV:   5    -0.149782779871E+04    0.43293E+01   -0.31463E+01 17600   0.647E+00    0.415E+00
DAV:   6    -0.149740103837E+04    0.42676E+00   -0.63143E+00 17192   0.329E+00    0.281E+00
DAV:   7    -0.149724229461E+04    0.15874E+00   -0.11477E+00 16184   0.156E+00    0.200E+00
DAV:   8    -0.149717979773E+04    0.62497E-01   -0.44126E-01 18160   0.736E-01    0.105E+00
DAV:   9    -0.149717123124E+04    0.85665E-02   -0.20721E-01 17904   0.437E-01    0.494E-01
DAV:  10    -0.149717550145E+04   -0.42702E-02   -0.66977E-02 18352   0.332E-01    0.431E-01
DAV:  11    -0.149716912377E+04    0.63777E-02   -0.29583E-02 18328   0.234E-01    0.216E-01
DAV:  12    -0.149716826285E+04    0.86092E-03   -0.12850E-02 18216   0.126E-01    0.984E-02
DAV:  13    -0.149716874542E+04   -0.48257E-03   -0.28870E-03 16528   0.609E-02    0.559E-02
DAV:  14    -0.149716898747E+04   -0.24205E-03   -0.99229E-04 17760   0.436E-02    0.500E-02
DAV:  15    -0.149716895504E+04    0.32430E-04   -0.48847E-04 17592   0.303E-02    0.268E-02
DAV:  16    -0.149716894815E+04    0.68878E-05   -0.17996E-04 16400   0.162E-02    0.115E-02
DAV:  17    -0.149716895446E+04   -0.63038E-05   -0.39028E-05  8168   0.831E-03
   2 F= -.14971690E+04 E0= -.14971766E+04  d E =0.446169E+02
       N       E                     dE             d eps       ncg     rms          rms(c)
DAV:   1    -0.157562602650E+04   -0.78457E+02   -0.13497E+03 11172   0.629E+01    0.194E+01
DAV:   2    -0.156006652074E+04    0.15560E+02   -0.48641E+01 16824   0.109E+01    0.100E+01
DAV:   3    -0.155749981005E+04    0.25667E+01   -0.28934E+01 18112   0.790E+00    0.805E+00
DAV:   4    -0.155481358393E+04    0.26862E+01   -0.13022E+01 17736   0.561E+00    0.526E+00
DAV:   5    -0.155337260909E+04    0.14410E+01   -0.75951E+00 16240   0.398E+00    0.160E+00
DAV:   6    -0.155332188788E+04    0.50721E-01   -0.14380E+00 14560   0.169E+00    0.879E-01
DAV:   7    -0.155333162245E+04   -0.97346E-02   -0.20336E-01 15200   0.650E-01    0.648E-01
DAV:   8    -0.155333421283E+04   -0.25904E-02   -0.47355E-02 15968   0.297E-01    0.372E-01
DAV:   9    -0.155334501058E+04   -0.10798E-01   -0.51213E-02 16616   0.257E-01    0.249E-01
DAV:  10    -0.155334473420E+04    0.27637E-03   -0.10950E-02 15408   0.169E-01    0.125E-01
DAV:  11    -0.155334478052E+04   -0.46315E-04   -0.37942E-03 16920   0.795E-02    0.657E-02
DAV:  12    -0.155334500823E+04   -0.22772E-03   -0.13813E-03 16208   0.516E-02    0.449E-02
DAV:  13    -0.155334522107E+04   -0.21284E-03   -0.53184E-04 13624   0.323E-02    0.247E-02
DAV:  14    -0.155334522762E+04   -0.65436E-05   -0.12880E-04 13136   0.157E-02    0.122E-02
DAV:  15    -0.155334522240E+04    0.52138E-05   -0.25709E-05  6976   0.785E-03
   3 F= -.15533452E+04 E0= -.15533704E+04  d E =-.561763E+02
       N       E                     dE             d eps       ncg     rms          rms(c)
DAV:   1    -0.155383673738E+04   -0.49151E+00   -0.37037E+01 11172   0.852E+00    0.133E+00
DAV:   2    -0.155382358690E+04    0.13150E-01   -0.67489E-01 16312   0.936E-01    0.839E-01
DAV:   3    -0.155381375287E+04    0.98340E-02   -0.15928E-01 18368   0.589E-01    0.691E-01
DAV:   4    -0.155379349209E+04    0.20261E-01   -0.73610E-02 17280   0.418E-01    0.382E-01
DAV:   5    -0.155378770026E+04    0.57918E-02   -0.34535E-02 14784   0.265E-01    0.136E-01
DAV:   6    -0.155378749590E+04    0.20437E-03   -0.82336E-03 15128   0.132E-01    0.762E-02
DAV:   7    -0.155378755209E+04   -0.56195E-04   -0.16144E-03 15936   0.641E-02    0.627E-02
DAV:   8    -0.155378745226E+04    0.99835E-04   -0.61780E-04 16408   0.393E-02    0.348E-02
DAV:   9    -0.155378746802E+04   -0.15767E-04   -0.24690E-04 15320   0.202E-02    0.198E-02
DAV:  10    -0.155378747978E+04   -0.11757E-04   -0.65506E-05 11464   0.122E-02    0.922E-03
DAV:  11    -0.155378748090E+04   -0.11225E-05   -0.16083E-05  6832   0.745E-03
   4 F= -.15537875E+04 E0= -.15538091E+04  d E =-.442258E+00
       N       E                     dE             d eps       ncg     rms          rms(c)
DAV:   1    -0.155386057094E+04   -0.73091E-01   -0.54064E+00 11172   0.316E+00    0.563E-01
DAV:   2    -0.155386317292E+04   -0.26020E-02   -0.16508E-01 17912   0.563E-01    0.449E-01
DAV:   3    -0.155385412403E+04    0.90489E-02   -0.55710E-02 17984   0.376E-01    0.270E-01
DAV:   4    -0.155385106408E+04    0.30600E-02   -0.13595E-02 18008   0.163E-01    0.163E-01
DAV:   5    -0.155385018100E+04    0.88308E-03   -0.54108E-03 15480   0.106E-01    0.787E-02
DAV:   6    -0.155384992432E+04    0.25668E-03   -0.18195E-03 15112   0.632E-02    0.409E-02
DAV:   7    -0.155384989055E+04    0.33764E-04   -0.40244E-04 16144   0.339E-02    0.293E-02
DAV:   8    -0.155384987971E+04    0.10849E-04   -0.12396E-04 13888   0.161E-02    0.174E-02
DAV:   9    -0.155384988678E+04   -0.70729E-05   -0.65419E-05 11992   0.109E-02
   5 F= -.15538499E+04 E0= -.15538714E+04  d E =-.624059E-01
       N       E                     dE             d eps       ncg     rms          rms(c)
DAV:   1    -0.155387192760E+04   -0.22048E-01   -0.23351E+00 11200   0.206E+00    0.256E-01
DAV:   2    -0.155387553663E+04   -0.36090E-02   -0.44352E-02 17216   0.276E-01    0.248E-01
DAV:   3    -0.155387263402E+04    0.29026E-02   -0.12464E-02 17768   0.178E-01    0.137E-01
DAV:   4    -0.155387221245E+04    0.42156E-03   -0.28784E-03 15936   0.723E-02    0.863E-02
DAV:   5    -0.155387205658E+04    0.15588E-03   -0.13650E-03 14536   0.517E-02    0.352E-02
DAV:   6    -0.155387203817E+04    0.18406E-04   -0.41283E-04 15344   0.311E-02    0.179E-02
DAV:   7    -0.155387203316E+04    0.50075E-05   -0.10517E-04 13688   0.174E-02    0.132E-02
DAV:   8    -0.155387202397E+04    0.91902E-05   -0.25733E-05  7344   0.942E-03
   6 F= -.15538720E+04 E0= -.15538927E+04  d E =-.221372E-01
       N       E                     dE             d eps       ncg     rms          rms(c)
DAV:   1    -0.155388247546E+04   -0.10442E-01   -0.59645E-01 11298   0.108E+00    0.223E-01
DAV:   2    -0.155388236062E+04    0.11484E-03   -0.19668E-02 18176   0.212E-01    0.184E-01
DAV:   3    -0.155388062675E+04    0.17339E-02   -0.87902E-03 18152   0.149E-01    0.104E-01
DAV:   4    -0.155388011647E+04    0.51027E-03   -0.20267E-03 16360   0.625E-02    0.620E-02
DAV:   5    -0.155387991405E+04    0.20242E-03   -0.89518E-04 15072   0.452E-02    0.299E-02
DAV:   6    -0.155387985760E+04    0.56453E-04   -0.27970E-04 14904   0.258E-02    0.156E-02
DAV:   7    -0.155387985011E+04    0.74917E-05   -0.55695E-05 11416   0.136E-02
   7 F= -.15538799E+04 E0= -.15539005E+04  d E =-.782613E-02
       N       E                     dE             d eps       ncg     rms          rms(c)
DAV:   1    -0.155388514233E+04   -0.52847E-02   -0.41009E-01 11298   0.868E-01    0.113E-01
DAV:   2    -0.155388583338E+04   -0.69105E-03   -0.69590E-03 17400   0.117E-01    0.114E-01
DAV:   3    -0.155388518562E+04    0.64777E-03   -0.24252E-03 17944   0.790E-02    0.609E-02
DAV:   4    -0.155388512802E+04    0.57597E-04   -0.56414E-04 15136   0.328E-02    0.325E-02
DAV:   5    -0.155388511838E+04    0.96381E-05   -0.25129E-04 14656   0.233E-02    0.125E-02
DAV:   6    -0.155388511877E+04   -0.39227E-06   -0.57167E-05 11504   0.128E-02
   8 F= -.15538851E+04 E0= -.15539054E+04  d E =-.526867E-02
       N       E                     dE             d eps       ncg     rms          rms(c)
DAV:   1    -0.155388791298E+04   -0.27946E-02   -0.23325E-01 11298   0.647E-01    0.951E-02
DAV:   2    -0.155388842103E+04   -0.50805E-03   -0.56799E-03 18248   0.116E-01    0.106E-01
DAV:   3    -0.155388772965E+04    0.69137E-03   -0.24554E-03 18145   0.789E-02    0.468E-02
DAV:   4    -0.155388765177E+04    0.77882E-04   -0.37252E-04 15776   0.258E-02    0.311E-02
DAV:   5    -0.155388760630E+04    0.45475E-04   -0.17384E-04 14744   0.196E-02    0.159E-02
DAV:   6    -0.155388758951E+04    0.16787E-04   -0.61654E-05 12376   0.130E-02    0.792E-03
DAV:   7    -0.155388758717E+04    0.23386E-05   -0.14518E-05  6576   0.753E-03
   9 F= -.15538876E+04 E0= -.15539077E+04  d E =-.246840E-02
       N       E                     dE             d eps       ncg     rms          rms(c)
DAV:   1    -0.155388881234E+04   -0.12228E-02   -0.10785E-01 11326   0.443E-01    0.553E-02
DAV:   2    -0.155388904028E+04   -0.22794E-03   -0.17365E-03 17432   0.613E-02    0.614E-02
DAV:   3    -0.155388883856E+04    0.20172E-03   -0.68594E-04 17848   0.423E-02    0.302E-02
DAV:   4    -0.155388883863E+04   -0.63660E-07   -0.13664E-04 14008   0.165E-02    0.155E-02
DAV:   5    -0.155388884333E+04   -0.46996E-05   -0.51245E-05 10536   0.116E-02
  10 F= -.15538888E+04 E0= -.15539089E+04  d E =-.125616E-02
       N       E                     dE             d eps       ncg     rms          rms(c)
DAV:   1    -0.155388969307E+04   -0.85444E-03   -0.48876E-02 11326   0.300E-01    0.495E-02
DAV:   2    -0.155388974362E+04   -0.50554E-04   -0.11784E-03 18088   0.538E-02    0.501E-02
DAV:   3    -0.155388959330E+04    0.15033E-03   -0.54483E-04 18000   0.374E-02    0.241E-02
DAV:   4    -0.155388956165E+04    0.31650E-04   -0.94705E-05 13592   0.133E-02    0.148E-02
DAV:   5    -0.155388953966E+04    0.21988E-04   -0.36190E-05  7936   0.101E-02    0.677E-03
DAV:   6    -0.155388953365E+04    0.60120E-05   -0.11347E-05  6360   0.692E-03
  11 F= -.15538895E+04 E0= -.15539095E+04  d E =-.690322E-03
       N       E                     dE             d eps       ncg     rms          rms(c)
DAV:   1    -0.155389008805E+04   -0.54839E-03   -0.51648E-02 11326   0.302E-01    0.327E-02
DAV:   2    -0.155389020985E+04   -0.12180E-03   -0.78936E-04 17608   0.417E-02    0.410E-02
DAV:   3    -0.155389011506E+04    0.94791E-04   -0.29878E-04 17696   0.280E-02    0.190E-02
DAV:   4    -0.155389011671E+04   -0.16566E-05   -0.45027E-05  9504   0.101E-02    0.104E-02
DAV:   5    -0.155389012072E+04   -0.40084E-05   -0.17971E-05  6544   0.782E-03
  12 F= -.15538901E+04 E0= -.15539100E+04  d E =-.587074E-03
       N       E                     dE             d eps       ncg     rms          rms(c)
DAV:   1    -0.155389048924E+04   -0.37253E-03   -0.29557E-02 11326   0.230E-01    0.306E-02
DAV:   2    -0.155389052637E+04   -0.37131E-04   -0.56208E-04 17744   0.362E-02    0.337E-02
DAV:   3    -0.155389045731E+04    0.69064E-04   -0.23061E-04 17032   0.247E-02    0.158E-02
DAV:   4    -0.155389044354E+04    0.13773E-04   -0.31411E-05  7696   0.873E-03    0.985E-03
DAV:   5    -0.155389043275E+04    0.10784E-04   -0.16880E-05  6264   0.679E-03    0.443E-03
DAV:   6    -0.155389042978E+04    0.29730E-05   -0.56461E-06  6216   0.496E-03
  13 F= -.15538904E+04 E0= -.15539103E+04  d E =-.309057E-03
       N       E                     dE             d eps       ncg     rms          rms(c)
DAV:   1    -0.155389062836E+04   -0.19561E-03   -0.13463E-02 11326   0.156E-01    0.194E-02
DAV:   2    -0.155389065283E+04   -0.24470E-04   -0.16610E-04 16120   0.179E-02    0.176E-02
DAV:   3    -0.155389064090E+04    0.11930E-04   -0.42948E-05  9616   0.119E-02    0.106E-02
DAV:   4    -0.155389064788E+04   -0.69808E-05   -0.17660E-05  6280   0.687E-03    0.479E-03
DAV:   5    -0.155389065228E+04   -0.43928E-05   -0.67014E-06  6144   0.519E-03
  14 F= -.15538907E+04 E0= -.15539105E+04  d E =-.222498E-03
       N       E                     dE             d eps       ncg     rms          rms(c)
DAV:   1    -0.155389085373E+04   -0.20584E-03   -0.15558E-02 11326   0.166E-01    0.192E-02
DAV:   2    -0.155389087294E+04   -0.19214E-04   -0.23797E-04 17656   0.239E-02    0.224E-02
DAV:   3    -0.155389084227E+04    0.30675E-04   -0.91115E-05 13664   0.161E-02    0.106E-02
DAV:   4    -0.155389083600E+04    0.62633E-05   -0.15000E-05  6368   0.654E-03    0.652E-03
DAV:   5    -0.155389083015E+04    0.58503E-05   -0.78719E-06  6056   0.518E-03
  15 F= -.15538908E+04 E0= -.15539107E+04  d E =-.177876E-03
       N       E                     dE             d eps       ncg     rms          rms(c)
DAV:   1    -0.155389097124E+04   -0.13524E-03   -0.14020E-02 11326   0.157E-01    0.154E-02
DAV:   2    -0.155389099327E+04   -0.22028E-04   -0.15199E-04 15936   0.172E-02    0.157E-02
DAV:   3    -0.155389098253E+04    0.10740E-04   -0.30413E-05  8360   0.108E-02    0.943E-03
DAV:   4    -0.155389098667E+04   -0.41409E-05   -0.16983E-05  6216   0.618E-03    0.397E-03
DAV:   5    -0.155389098922E+04   -0.25505E-05   -0.62832E-06  6112   0.521E-03
  16 F= -.15538910E+04 E0= -.15539108E+04  d E =-.159071E-03
       N       E                     dE             d eps       ncg     rms          rms(c)
DAV:   1    -0.155389108501E+04   -0.98340E-04   -0.55651E-03 11326   0.100E-01    0.135E-02
DAV:   2    -0.155389108076E+04    0.42562E-05   -0.74074E-05 12400   0.144E-02    0.126E-02
DAV:   3    -0.155389107050E+04    0.10260E-04   -0.28194E-05  8200   0.102E-02    0.666E-03
DAV:   4    -0.155389106547E+04    0.50286E-05   -0.88034E-06  5936   0.466E-03    0.390E-03
DAV:   5    -0.155389106093E+04    0.45363E-05   -0.45057E-06  5904   0.388E-03
  17 F= -.15538911E+04 E0= -.15539109E+04  d E =-.717093E-04
       N       E                     dE             d eps       ncg     rms          rms(c)
DAV:   1    -0.155389113709E+04   -0.71625E-04   -0.59122E-03 11326   0.102E-01    0.106E-02
DAV:   2    -0.155389114677E+04   -0.96720E-05   -0.53247E-05 10768   0.106E-02    0.942E-03
DAV:   3    -0.155389114476E+04    0.20036E-05   -0.14369E-05  6712   0.700E-03    0.630E-03
DAV:   4    -0.155389114901E+04   -0.42436E-05   -0.71916E-06  5880   0.380E-03    0.207E-03
DAV:   5    -0.155389115049E+04   -0.14806E-05   -0.27297E-06  5880   0.299E-03
  18 F= -.15538912E+04 E0= -.15539110E+04  d E =-.895540E-04
       N       E                     dE             d eps       ncg     rms          rms(c)
DAV:   1    -0.155389123144E+04   -0.82438E-04   -0.69590E-03 11326   0.110E-01    0.109E-02
DAV:   2    -0.155389123297E+04   -0.15208E-05   -0.70220E-05 12080   0.119E-02    0.102E-02
DAV:   3    -0.155389122817E+04    0.48005E-05   -0.16226E-05  6920   0.775E-03    0.655E-03
DAV:   4    -0.155389122504E+04    0.31263E-05   -0.71570E-06  5880   0.401E-03    0.338E-03
DAV:   5    -0.155389122280E+04    0.22380E-05   -0.34666E-06  5880   0.351E-03
  19 F= -.15538912E+04 E0= -.15539111E+04  d E =-.723137E-04
       N       E                     dE             d eps       ncg     rms          rms(c)
DAV:   1    -0.155389126712E+04   -0.42080E-04   -0.33505E-03 11326   0.769E-02    0.798E-03
DAV:   2    -0.155389127286E+04   -0.57462E-05   -0.21428E-05  7192   0.767E-03    0.631E-03
DAV:   3    -0.155389127314E+04   -0.27124E-06   -0.85699E-06  6160   0.529E-03    0.445E-03
DAV:   4    -0.155389127700E+04   -0.38657E-05   -0.52256E-06  5880   0.354E-03    0.147E-03
DAV:   5    -0.155389127818E+04   -0.11747E-05   -0.25666E-06  5880   0.279E-03
  20 F= -.15538913E+04 E0= -.15539111E+04  d E =-.553759E-04
       N       E                     dE             d eps       ncg     rms          rms(c)
DAV:   1    -0.155389132700E+04   -0.50000E-04   -0.31461E-03 11326   0.743E-02    0.830E-03
DAV:   2    -0.155389132248E+04    0.45177E-05   -0.23479E-05  7856   0.792E-03    0.605E-03
DAV:   3    -0.155389132117E+04    0.13133E-05   -0.93856E-06  6104   0.588E-03    0.449E-03
DAV:   4    -0.155389131803E+04    0.31375E-05   -0.49045E-06  5880   0.370E-03    0.221E-03
DAV:   5    -0.155389131647E+04    0.15606E-05   -0.28958E-06  5880   0.295E-03
  21 F= -.15538913E+04 E0= -.15539112E+04  d E =-.382960E-04
       N       E                     dE             d eps       ncg     rms          rms(c)
DAV:   1    -0.155389135074E+04   -0.32707E-04   -0.26005E-03 11326   0.673E-02    0.658E-03
DAV:   2    -0.155389135448E+04   -0.37403E-05   -0.17413E-05  6392   0.638E-03    0.492E-03
DAV:   3    -0.155389135541E+04   -0.93288E-06   -0.69479E-06  5928   0.434E-03    0.376E-03
DAV:   4    -0.155389135800E+04   -0.25832E-05   -0.43650E-06  5859   0.329E-03    0.110E-03
DAV:   5    -0.155389135872E+04   -0.72014E-06   -0.22891E-06  5859   0.258E-03
  22 F= -.15538914E+04 E0= -.15539112E+04  d E =-.422441E-04
       N       E                     dE             d eps       ncg     rms          rms(c)
DAV:   1    -0.155389139700E+04   -0.39000E-04   -0.29673E-03 11326   0.717E-02    0.693E-03
DAV:   2    -0.155389139487E+04    0.21256E-05   -0.19978E-05  7560   0.697E-03    0.514E-03
DAV:   3    -0.155389139440E+04    0.47206E-06   -0.78620E-06  5912   0.483E-03    0.397E-03
DAV:   4    -0.155389139230E+04    0.21005E-05   -0.44572E-06  5838   0.341E-03    0.171E-03
DAV:   5    -0.155389139157E+04    0.72983E-06   -0.25952E-06  5838   0.272E-03
  23 F= -.15538914E+04 E0= -.15539112E+04  d E =-.328522E-04
       N       E                     dE             d eps       ncg     rms          rms(c)
DAV:   1    -0.155389141378E+04   -0.21481E-04   -0.15847E-03 11326   0.526E-02    0.537E-03
DAV:   2    -0.155389141710E+04   -0.33171E-05   -0.11394E-05  5883   0.505E-03    0.378E-03
DAV:   3    -0.155389141835E+04   -0.12547E-05   -0.47233E-06  5859   0.355E-03    0.283E-03
DAV:   4    -0.155389142032E+04   -0.19695E-05   -0.27870E-06  5838   0.277E-03    0.105E-03
DAV:   5    -0.155389142114E+04   -0.81930E-06   -0.16059E-06  5838   0.210E-03
  24 F= -.15538914E+04 E0= -.15539113E+04  d E =-.295717E-04
       N       E                     dE             d eps       ncg     rms          rms(c)
DAV:   1    -0.155389144682E+04   -0.26503E-04   -0.15977E-03 11326   0.527E-02    0.523E-03
DAV:   2    -0.155389144480E+04    0.20275E-05   -0.10930E-05  6403   0.510E-03    0.375E-03
DAV:   3    -0.155389144435E+04    0.44595E-06   -0.44172E-06  5859   0.357E-03    0.291E-03
DAV:   4    -0.155389144278E+04    0.15688E-05   -0.25066E-06  5838   0.261E-03    0.127E-03
DAV:   5    -0.155389144216E+04    0.62196E-06   -0.14927E-06  5838   0.204E-03
  25 F= -.15538914E+04 E0= -.15539113E+04  d E =-.210191E-04
       N       E                     dE             d eps       ncg     rms          rms(c)
DAV:   1    -0.155389146526E+04   -0.22474E-04   -0.21139E-03 11326   0.605E-02    0.544E-03
DAV:   2    -0.155389146758E+04   -0.23274E-05   -0.13128E-05  6712   0.541E-03    0.405E-03
DAV:   3    -0.155389146848E+04   -0.89475E-06   -0.51774E-06  5928   0.349E-03    0.297E-03
DAV:   4    -0.155389146998E+04   -0.14991E-05   -0.32346E-06  5838   0.288E-03    0.741E-04
DAV:   5    -0.155389147024E+04   -0.26698E-06   -0.16921E-06  5838   0.211E-03
  26 F= -.15538915E+04 E0= -.15539113E+04  d E =-.280841E-04
       N       E                     dE             d eps       ncg     rms          rms(c)
DAV:   1    -0.155389149152E+04   -0.21543E-04   -0.14213E-03 11326   0.498E-02    0.521E-03
DAV:   2    -0.155389148867E+04    0.28532E-05   -0.10201E-05  6302   0.491E-03    0.355E-03
DAV:   3    -0.155389148793E+04    0.73537E-06   -0.41789E-06  5838   0.353E-03    0.274E-03
DAV:   4    -0.155389148628E+04    0.16494E-05   -0.22908E-06  5838   0.260E-03    0.131E-03
DAV:   5    -0.155389148542E+04    0.86162E-06   -0.14123E-06  5838   0.197E-03
  27 F= -.15538915E+04 E0= -.15539113E+04  d E =-.151763E-04
       N       E                     dE             d eps       ncg     rms          rms(c)
DAV:   1    -0.155389149596E+04   -0.96827E-05   -0.61949E-04 11326   0.330E-02    0.361E-03
DAV:   2    -0.155389149824E+04   -0.22777E-05   -0.47677E-06  5817   0.325E-03    0.246E-03
DAV:   3    -0.155389149915E+04   -0.90452E-06   -0.20350E-06  5817   0.236E-03    0.184E-03
DAV:   4    -0.155389150042E+04   -0.12718E-05   -0.11846E-06  5817   0.180E-03    0.774E-04
DAV:   5    -0.155389150105E+04   -0.63017E-06   -0.70351E-07  5817   0.137E-03
  28 F= -.15538915E+04 E0= -.15539113E+04  d E =-.156285E-04
       N       E                     dE             d eps       ncg     rms          rms(c)
DAV:   1    -0.155389151955E+04   -0.19129E-04   -0.15962E-03 11312   0.525E-02    0.466E-03
DAV:   2    -0.155389151911E+04    0.43735E-06   -0.95021E-06  6072   0.464E-03    0.349E-03
DAV:   3    -0.155389151901E+04    0.10362E-06   -0.36539E-06  5873   0.294E-03    0.262E-03
DAV:   4    -0.155389151821E+04    0.79896E-06   -0.22452E-06  5838   0.238E-03    0.745E-04
DAV:   5    -0.155389151818E+04    0.32739E-07   -0.11966E-06  5831   0.176E-03
  29 F= -.15538915E+04 E0= -.15539114E+04  d E =-.171264E-04
       N       E                     dE             d eps       ncg     rms          rms(c)
DAV:   1    -0.155389154097E+04   -0.22762E-04   -0.45717E-03 11270   0.890E-02    0.799E-03
DAV:   2    -0.155389154500E+04   -0.40329E-05   -0.28592E-05  8488   0.765E-03    0.582E-03
DAV:   3    -0.155389154693E+04   -0.19312E-05   -0.96249E-06  5963   0.458E-03    0.346E-03
DAV:   4    -0.155389154860E+04   -0.16645E-05   -0.51758E-06  5880   0.385E-03    0.135E-03
DAV:   5    -0.155389154910E+04   -0.50451E-06   -0.28274E-06  5852   0.274E-03
  30 F= -.15538915E+04 E0= -.15539114E+04  d E =-.309274E-04
       N       E                     dE             d eps       ncg     rms          rms(c)
DAV:   1    -0.155389154968E+04   -0.10851E-05   -0.23348E-04 11208   0.219E-02    0.422E-03
DAV:   2    -0.155389154496E+04    0.47246E-05   -0.20060E-06  5817   0.254E-03    0.221E-03
DAV:   3    -0.155389154325E+04    0.17084E-05   -0.86386E-07  5810   0.210E-03    0.175E-03
DAV:   4    -0.155389154175E+04    0.15021E-05   -0.38694E-07  5817   0.145E-03    0.803E-04
DAV:   5    -0.155389154056E+04    0.11854E-05   -0.22829E-07  5817   0.806E-04
  31 F= -.15538915E+04 E0= -.15539114E+04  d E =0.854001E-05
       N       E                     dE             d eps       ncg     rms          rms(c)
DAV:   1    -0.155389155498E+04   -0.13237E-04   -0.15936E-03 11305   0.525E-02    0.438E-03
DAV:   2    -0.155389155561E+04   -0.63032E-06   -0.80876E-06  5817   0.430E-03    0.329E-03
DAV:   3    -0.155389155586E+04   -0.24874E-06   -0.29237E-06  5810   0.250E-03    0.224E-03
DAV:   4    -0.155389155610E+04   -0.24022E-06   -0.18121E-06  5817   0.218E-03    0.616E-04
DAV:   5    -0.155389155617E+04   -0.66137E-07   -0.88789E-07  5817   0.148E-03
  32 F= -.15538916E+04 E0= -.15539114E+04  d E =-.156076E-04
       N       E                     dE             d eps       ncg     rms          rms(c)
DAV:   1    -0.155389159562E+04   -0.39514E-04   -0.23306E-02 11200   0.201E-01    0.170E-02
DAV:   2    -0.155389160721E+04   -0.11593E-04   -0.20208E-04 16048   0.166E-02    0.132E-02
DAV:   3    -0.155389160440E+04    0.28151E-05   -0.10780E-05  6739   0.621E-03    0.900E-03
DAV:   4    -0.155389160104E+04    0.33585E-05   -0.89125E-06  6288   0.620E-03    0.281E-03
DAV:   5    -0.155389160059E+04    0.44327E-06   -0.29582E-06  5873   0.369E-03
  33 F= -.15538916E+04 E0= -.15539114E+04  d E =-.444244E-04
       N       E                     dE             d eps       ncg     rms          rms(c)
DAV:   1    -0.155389158962E+04    0.11420E-04   -0.80952E-04 11270   0.390E-02    0.625E-03
DAV:   2    -0.155389159343E+04   -0.38126E-05   -0.56682E-06  5817   0.404E-03    0.363E-03
DAV:   3    -0.155389159507E+04   -0.16401E-05   -0.22100E-06  5803   0.321E-03    0.294E-03
DAV:   4    -0.155389159688E+04   -0.18085E-05   -0.10987E-06  5796   0.221E-03    0.129E-03
DAV:   5    -0.155389159842E+04   -0.15442E-05   -0.63965E-07  5796   0.130E-03
  34 F= -.15538916E+04 E0= -.15539114E+04  d E =0.217141E-05
       N       E                     dE             d eps       ncg     rms          rms(c)
DAV:   1    -0.155389161457E+04   -0.17689E-04   -0.17049E-03 11270   0.548E-02    0.562E-03
DAV:   2    -0.155389161098E+04    0.35856E-05   -0.89204E-06  5817   0.472E-03    0.371E-03
DAV:   3    -0.155389160977E+04    0.12144E-05   -0.31164E-06  5803   0.301E-03    0.282E-03
DAV:   4    -0.155389160793E+04    0.18412E-05   -0.15969E-06  5817   0.227E-03    0.130E-03
DAV:   5    -0.155389160692E+04    0.10075E-05   -0.94972E-07  5817   0.152E-03
  35 F= -.15538916E+04 E0= -.15539114E+04  d E =-.849625E-05
       N       E                     dE             d eps       ncg     rms          rms(c)
DAV:   1    -0.155389161123E+04   -0.33035E-05   -0.52023E-04 11270   0.299E-02    0.269E-03
DAV:   2    -0.155389161177E+04   -0.54167E-06   -0.34686E-06  5775   0.275E-03    0.206E-03
DAV:   3    -0.155389161197E+04   -0.19488E-06   -0.14012E-06  5761   0.178E-03    0.155E-03
DAV:   4    -0.155389161233E+04   -0.36291E-06   -0.89739E-07  5775   0.145E-03    0.452E-04
DAV:   5    -0.155389161241E+04   -0.84462E-07   -0.46913E-07  5775   0.111E-03
  36 F= -.15538916E+04 E0= -.15539114E+04  d E =-.549494E-05
       N       E                     dE             d eps       ncg     rms          rms(c)
DAV:   1    -0.155389161697E+04   -0.46383E-05   -0.27114E-04 11180   0.219E-02    0.253E-03
DAV:   2    -0.155389161516E+04    0.18088E-05   -0.21805E-06  5775   0.228E-03    0.161E-03
DAV:   3    -0.155389161457E+04    0.59211E-06   -0.91454E-07  5768   0.169E-03    0.122E-03
DAV:   4    -0.155389161380E+04    0.76672E-06   -0.48886E-07  5775   0.124E-03    0.654E-04
DAV:   5    -0.155389161326E+04    0.54324E-06   -0.30809E-07  5775   0.934E-04
  37 F= -.15538916E+04 E0= -.15539114E+04  d E =-.842923E-06
       N       E                     dE             d eps       ncg     rms          rms(c)
DAV:   1    -0.155389161351E+04    0.28903E-06   -0.44428E-05 10026   0.918E-03    0.155E-03
DAV:   2    -0.155389161483E+04   -0.13206E-05   -0.94998E-07  5775   0.153E-03    0.871E-04
DAV:   3    -0.155389161527E+04   -0.44212E-06   -0.30717E-07  5775   0.105E-03    0.729E-04
DAV:   4    -0.155389161585E+04   -0.57910E-06   -0.14994E-07  5775   0.699E-04    0.327E-04
DAV:   5    -0.155389161626E+04   -0.40198E-06   -0.87900E-08  5775   0.481E-04
  38 F= -.15538916E+04 E0= -.15539115E+04  d E =-.299806E-05
       N       E                     dE             d eps       ncg     rms          rms(c)
DAV:   1    -0.155389161937E+04   -0.35209E-05   -0.29162E-04 11166   0.224E-02    0.195E-03
DAV:   2    -0.155389161944E+04   -0.64188E-07   -0.16738E-06  5775   0.194E-03    0.146E-03
DAV:   3    -0.155389161945E+04   -0.11992E-07   -0.64908E-07  5761   0.118E-03    0.939E-04
DAV:   4    -0.155389161943E+04    0.19171E-07   -0.38548E-07  5775   0.102E-03    0.303E-04
DAV:   5    -0.155389161944E+04   -0.10312E-07   -0.20265E-07  5768   0.725E-04
  39 F= -.15538916E+04 E0= -.15539115E+04  d E =-.318628E-05
       N       E                     dE             d eps       ncg     rms          rms(c)
DAV:   1    -0.155389163023E+04   -0.10803E-04   -0.12413E-02 11186   0.146E-01    0.124E-02
DAV:   2    -0.155389163645E+04   -0.62147E-05   -0.10384E-04 14984   0.120E-02    0.962E-03
DAV:   3    -0.155389163478E+04    0.16696E-05   -0.70432E-06  6091   0.466E-03    0.552E-03
DAV:   4    -0.155389163387E+04    0.90902E-06   -0.43213E-06  5944   0.454E-03    0.221E-03
DAV:   5    -0.155389163361E+04    0.26030E-06   -0.14978E-06  5859   0.286E-03
  40 F= -.15538916E+04 E0= -.15539115E+04  d E =-.141687E-04
       N       E                     dE             d eps       ncg     rms          rms(c)
DAV:   1    -0.155389163567E+04   -0.18042E-05   -0.38743E-03 11228   0.818E-02    0.664E-03
DAV:   2    -0.155389163671E+04   -0.10315E-05   -0.20953E-05  7248   0.683E-03    0.500E-03
DAV:   3    -0.155389163693E+04   -0.22218E-06   -0.78930E-06  5873   0.397E-03    0.294E-03
DAV:   4    -0.155389163698E+04   -0.48135E-07   -0.44225E-06  5838   0.342E-03    0.107E-03
DAV:   5    -0.155389163713E+04   -0.15257E-06   -0.24009E-06  5838   0.247E-03
  41 F= -.15538916E+04 E0= -.15539115E+04  d E =-.351894E-05
