       N       E                     dE             d eps       ncg     rms          rms(c)
DAV:   1     0.199459880616E+04    0.19946E+04   -0.27968E+05 11284   0.142E+03
DAV:   2    -0.118525520688E+04   -0.31799E+04   -0.30531E+04 13014   0.273E+02
DAV:   3    -0.158841906580E+04   -0.40316E+03   -0.36743E+03 17640   0.824E+01
DAV:   4    -0.161350211665E+04   -0.25083E+02   -0.22783E+02 16008   0.164E+01
DAV:   5    -0.161461975693E+04   -0.11176E+01   -0.10932E+01 17008   0.439E+00    0.386E+01
DAV:   6    -0.157763258757E+04    0.36987E+02   -0.11204E+02 17784   0.149E+01    0.225E+01
DAV:   7    -0.156718553719E+04    0.10447E+02   -0.96099E+01 17904   0.162E+01    0.177E+01
DAV:   8    -0.155665025570E+04    0.10535E+02   -0.62426E+01 16672   0.117E+01    0.107E+01
DAV:   9    -0.155073222880E+04    0.59180E+01   -0.24892E+01 16272   0.795E+00    0.309E+00
DAV:  10    -0.155061807835E+04    0.11415E+00   -0.47806E+00 16056   0.304E+00    0.146E+00
DAV:  11    -0.155062077957E+04   -0.27012E-02   -0.61865E-01 15637   0.115E+00    0.112E+00
DAV:  12    -0.155059657966E+04    0.24200E-01   -0.20997E-01 14680   0.658E-01    0.666E-01
DAV:  13    -0.155058231833E+04    0.14261E-01   -0.59670E-02 14400   0.392E-01    0.362E-01
DAV:  14    -0.155057784337E+04    0.44750E-02   -0.22022E-02 15328   0.199E-01    0.138E-01
DAV:  15    -0.155057752211E+04    0.32125E-03   -0.51999E-03 16472   0.109E-01    0.788E-02
DAV:  16    -0.155057742073E+04    0.10138E-03   -0.17752E-03 16400   0.655E-02    0.443E-02
DAV:  17    -0.155057739258E+04    0.28151E-04   -0.56836E-04 14736   0.359E-02    0.252E-02
DAV:  18    -0.155057737187E+04    0.20709E-04   -0.15712E-04 14232   0.192E-02    0.138E-02
DAV:  19    -0.155057736366E+04    0.82048E-05   -0.37076E-05  8728   0.111E-02
   1 F= -.15505774E+04 E0= -.15505715E+04  d E =-.155058E+04
       N       E                     dE             d eps       ncg     rms          rms(c)
DAV:   1    -0.155584890167E+04   -0.52715E+01   -0.24122E+03 11284   0.756E+01    0.270E+01
DAV:   2    -0.152996229730E+04    0.25887E+02   -0.16690E+02 18496   0.178E+01    0.180E+01
DAV:   3    -0.152221691724E+04    0.77454E+01   -0.93960E+01 18816   0.138E+01    0.138E+01
DAV:   4    -0.151500827057E+04    0.72086E+01   -0.42781E+01 20152   0.901E+00    0.950E+00
DAV:   5    -0.151159178767E+04    0.34165E+01   -0.27533E+01 18152   0.627E+00    0.430E+00
DAV:   6    -0.151104243082E+04    0.54936E+00   -0.64794E+00 17664   0.335E+00    0.261E+00
DAV:   7    -0.151090821928E+04    0.13421E+00   -0.11522E+00 16200   0.152E+00    0.187E+00
DAV:   8    -0.151085712719E+04    0.51092E-01   -0.39139E-01 17872   0.701E-01    0.101E+00
DAV:   9    -0.151085189809E+04    0.52291E-02   -0.26272E-01 17808   0.497E-01    0.487E-01
DAV:  10    -0.151085066383E+04    0.12343E-02   -0.51334E-02 17984   0.318E-01    0.343E-01
DAV:  11    -0.151084664035E+04    0.40235E-02   -0.20639E-02 19176   0.201E-01    0.168E-01
DAV:  12    -0.151084676180E+04   -0.12145E-03   -0.78667E-03 17952   0.104E-01    0.929E-02
DAV:  13    -0.151084734719E+04   -0.58538E-03   -0.25742E-03 16264   0.595E-02    0.559E-02
DAV:  14    -0.151084748317E+04   -0.13598E-03   -0.77616E-04 15296   0.379E-02    0.429E-02
DAV:  15    -0.151084744767E+04    0.35497E-04   -0.24920E-04 17264   0.233E-02    0.268E-02
DAV:  16    -0.151084743002E+04    0.17647E-04   -0.13213E-04 14896   0.151E-02    0.122E-02
DAV:  17    -0.151084743798E+04   -0.79600E-05   -0.49593E-05  9664   0.943E-03
   2 F= -.15108474E+04 E0= -.15108595E+04  d E =0.397299E+02
       N       E                     dE             d eps       ncg     rms          rms(c)
DAV:   1    -0.158100339081E+04   -0.70156E+02   -0.12044E+03 11284   0.590E+01    0.187E+01
DAV:   2    -0.156684441399E+04    0.14159E+02   -0.45805E+01 17109   0.109E+01    0.962E+00
DAV:   3    -0.156426486652E+04    0.25795E+01   -0.27753E+01 18096   0.813E+00    0.773E+00
DAV:   4    -0.156170808463E+04    0.25568E+01   -0.12025E+01 17736   0.555E+00    0.480E+00
DAV:   5    -0.156054589913E+04    0.11622E+01   -0.65773E+00 16336   0.379E+00    0.157E+00
DAV:   6    -0.156049447659E+04    0.51423E-01   -0.12950E+00 15024   0.161E+00    0.876E-01
DAV:   7    -0.156050014250E+04   -0.56659E-02   -0.18369E-01 15024   0.638E-01    0.677E-01
DAV:   8    -0.156050254946E+04   -0.24070E-02   -0.51700E-02 15920   0.299E-01    0.370E-01
DAV:   9    -0.156051594441E+04   -0.13395E-01   -0.57063E-02 16216   0.268E-01    0.273E-01
DAV:  10    -0.156051443695E+04    0.15075E-02   -0.11183E-02 15752   0.172E-01    0.131E-01
DAV:  11    -0.156051420769E+04    0.22925E-03   -0.32625E-03 16416   0.772E-02    0.687E-02
DAV:  12    -0.156051446116E+04   -0.25346E-03   -0.18379E-03 16656   0.559E-02    0.468E-02
DAV:  13    -0.156051468065E+04   -0.21950E-03   -0.54523E-04 13832   0.332E-02    0.274E-02
DAV:  14    -0.156051467661E+04    0.40377E-05   -0.13627E-04 13248   0.160E-02    0.136E-02
DAV:  15    -0.156051467064E+04    0.59748E-05   -0.26943E-05  7048   0.800E-03
   3 F= -.15605147E+04 E0= -.15605278E+04  d E =-.496672E+02
       N       E                     dE             d eps       ncg     rms          rms(c)
DAV:   1    -0.156090019305E+04   -0.38552E+00   -0.29585E+01 11284   0.754E+00    0.117E+00
DAV:   2    -0.156088828278E+04    0.11910E-01   -0.48782E-01 16416   0.850E-01    0.734E-01
DAV:   3    -0.156087988591E+04    0.83969E-02   -0.12091E-01 18336   0.553E-01    0.597E-01
DAV:   4    -0.156086421834E+04    0.15668E-01   -0.54245E-02 17048   0.367E-01    0.308E-01
DAV:   5    -0.156086096014E+04    0.32582E-02   -0.25765E-02 14960   0.234E-01    0.124E-01
DAV:   6    -0.156086073824E+04    0.22190E-03   -0.58656E-03 15688   0.124E-01    0.805E-02
DAV:   7    -0.156086065224E+04    0.86001E-04   -0.15470E-03 16088   0.628E-02    0.563E-02
DAV:   8    -0.156086060515E+04    0.47092E-04   -0.50308E-04 15392   0.327E-02    0.312E-02
DAV:   9    -0.156086062315E+04   -0.18002E-04   -0.20710E-04 15000   0.201E-02    0.194E-02
DAV:  10    -0.156086062739E+04   -0.42447E-05   -0.66306E-05 12104   0.143E-02
   4 F= -.15608606E+04 E0= -.15608743E+04  d E =-.345957E+00
       N       E                     dE             d eps       ncg     rms          rms(c)
DAV:   1    -0.156092004138E+04   -0.59418E-01   -0.48016E+00 11290   0.295E+00    0.483E-01
DAV:   2    -0.156092534015E+04   -0.52988E-02   -0.12768E-01 18152   0.545E-01    0.423E-01
DAV:   3    -0.156091534472E+04    0.99954E-02   -0.47711E-02 18184   0.365E-01    0.230E-01
DAV:   4    -0.156091341073E+04    0.19340E-02   -0.92034E-03 16376   0.136E-01    0.146E-01
DAV:   5    -0.156091279813E+04    0.61260E-03   -0.41242E-03 15712   0.966E-02    0.836E-02
DAV:   6    -0.156091255285E+04    0.24528E-03   -0.17973E-03 15488   0.688E-02    0.469E-02
DAV:   7    -0.156091246423E+04    0.88623E-04   -0.52467E-04 15496   0.380E-02    0.267E-02
DAV:   8    -0.156091246233E+04    0.18973E-05   -0.13380E-04 14016   0.158E-02    0.158E-02
DAV:   9    -0.156091246794E+04   -0.56105E-05   -0.42994E-05  9528   0.104E-02
   5 F= -.15609125E+04 E0= -.15609248E+04  d E =-.518405E-01
       N       E                     dE             d eps       ncg     rms          rms(c)
DAV:   1    -0.156093193269E+04   -0.19470E-01   -0.20503E+00 11284   0.192E+00    0.238E-01
DAV:   2    -0.156093495977E+04   -0.30271E-02   -0.34305E-02 17432   0.270E-01    0.234E-01
DAV:   3    -0.156093217327E+04    0.27865E-02   -0.10992E-02 17992   0.177E-01    0.128E-01
DAV:   4    -0.156093182383E+04    0.34944E-03   -0.24715E-03 15992   0.687E-02    0.759E-02
DAV:   5    -0.156093171290E+04    0.11093E-03   -0.12588E-03 15288   0.535E-02    0.369E-02
DAV:   6    -0.156093168394E+04    0.28962E-04   -0.42586E-04 16384   0.349E-02    0.208E-02
DAV:   7    -0.156093166953E+04    0.14414E-04   -0.12370E-04 14392   0.174E-02    0.120E-02
DAV:   8    -0.156093166293E+04    0.65929E-05   -0.25282E-05  7096   0.849E-03
   6 F= -.15609317E+04 E0= -.15609439E+04  d E =-.191950E-01
       N       E                     dE             d eps       ncg     rms          rms(c)
DAV:   1    -0.156094167847E+04   -0.10009E-01   -0.54341E-01 11357   0.102E+00    0.209E-01
DAV:   2    -0.156094180694E+04   -0.12847E-03   -0.16728E-02 18200   0.214E-01    0.179E-01
DAV:   3    -0.156093993346E+04    0.18735E-02   -0.82407E-03 18264   0.152E-01    0.955E-02
DAV:   4    -0.156093952425E+04    0.40921E-03   -0.17005E-03 15944   0.581E-02    0.581E-02
DAV:   5    -0.156093936018E+04    0.16407E-03   -0.78902E-04 15568   0.439E-02    0.321E-02
DAV:   6    -0.156093930021E+04    0.59964E-04   -0.30489E-04 15672   0.289E-02    0.181E-02
DAV:   7    -0.156093928423E+04    0.15987E-04   -0.80881E-05 13312   0.149E-02    0.105E-02
DAV:   8    -0.156093928606E+04   -0.18379E-05   -0.18748E-05  6664   0.694E-03
   7 F= -.15609393E+04 E0= -.15609509E+04  d E =-.762313E-02
       N       E                     dE             d eps       ncg     rms          rms(c)
DAV:   1    -0.156094468800E+04   -0.54038E-02   -0.45258E-01 11302   0.900E-01    0.110E-01
DAV:   2    -0.156094554201E+04   -0.85401E-03   -0.72919E-03 17392   0.133E-01    0.120E-01
DAV:   3    -0.156094473312E+04    0.80889E-03   -0.27600E-03 17789   0.889E-02    0.594E-02
DAV:   4    -0.156094468676E+04    0.46358E-04   -0.55757E-04 15528   0.330E-02    0.331E-02
DAV:   5    -0.156094468057E+04    0.61875E-05   -0.26213E-04 15680   0.257E-02    0.175E-02
DAV:   6    -0.156094467360E+04    0.69781E-05   -0.86785E-05 13696   0.162E-02
   8 F= -.15609447E+04 E0= -.15609564E+04  d E =-.538753E-02
       N       E                     dE             d eps       ncg     rms          rms(c)
DAV:   1    -0.156094755953E+04   -0.28790E-02   -0.24907E-01 11332   0.665E-01    0.951E-02
DAV:   2    -0.156094809864E+04   -0.53911E-03   -0.55229E-03 18136   0.125E-01    0.107E-01
DAV:   3    -0.156094735536E+04    0.74328E-03   -0.25056E-03 18048   0.842E-02    0.468E-02
DAV:   4    -0.156094728152E+04    0.73838E-04   -0.37185E-04 16008   0.263E-02    0.312E-02
DAV:   5    -0.156094724041E+04    0.41104E-04   -0.18084E-04 15456   0.210E-02    0.180E-02
DAV:   6    -0.156094722056E+04    0.19858E-04   -0.77629E-05 13640   0.153E-02    0.948E-03
DAV:   7    -0.156094721591E+04    0.46457E-05   -0.19818E-05  6800   0.834E-03
   9 F= -.15609472E+04 E0= -.15609587E+04  d E =-.254231E-02
       N       E                     dE             d eps       ncg     rms          rms(c)
DAV:   1    -0.156094851793E+04   -0.12974E-02   -0.10048E-01 11338   0.427E-01    0.575E-02
DAV:   2    -0.156094866635E+04   -0.14842E-03   -0.14487E-03 17088   0.591E-02    0.552E-02
DAV:   3    -0.156094851825E+04    0.14810E-03   -0.57598E-04 17840   0.406E-02    0.304E-02
DAV:   4    -0.156094851491E+04    0.33349E-05   -0.12671E-04 13656   0.164E-02    0.138E-02
DAV:   5    -0.156094852298E+04   -0.80691E-05   -0.43871E-05  9648   0.126E-02
  10 F= -.15609485E+04 E0= -.15609601E+04  d E =-.130707E-02
       N       E                     dE             d eps       ncg     rms          rms(c)
DAV:   1    -0.156094955260E+04   -0.10377E-02   -0.68311E-02 11344   0.350E-01    0.521E-02
DAV:   2    -0.156094964674E+04   -0.94137E-04   -0.14041E-03 18032   0.622E-02    0.543E-02
DAV:   3    -0.156094946090E+04    0.18584E-03   -0.64133E-04 18064   0.427E-02    0.258E-02
DAV:   4    -0.156094942992E+04    0.30974E-04   -0.10418E-04 14136   0.143E-02    0.163E-02
DAV:   5    -0.156094941038E+04    0.19541E-04   -0.45116E-05  9672   0.118E-02    0.871E-03
DAV:   6    -0.156094940281E+04    0.75742E-05   -0.15153E-05  7072   0.858E-03
  11 F= -.15609494E+04 E0= -.15609608E+04  d E =-.879825E-03
       N       E                     dE             d eps       ncg     rms          rms(c)
DAV:   1    -0.156095005382E+04   -0.64344E-03   -0.63738E-02 11332   0.334E-01    0.357E-02
DAV:   2    -0.156095017388E+04   -0.12006E-03   -0.85045E-04 17344   0.452E-02    0.410E-02
DAV:   3    -0.156095008339E+04    0.90487E-04   -0.30573E-04 17698   0.299E-02    0.208E-02
DAV:   4    -0.156095008544E+04   -0.20494E-05   -0.55892E-05 11288   0.111E-02    0.994E-03
DAV:   5    -0.156095008822E+04   -0.27733E-05   -0.18112E-05  7172   0.877E-03
  12 F= -.15609501E+04 E0= -.15609615E+04  d E =-.685410E-03
       N       E                     dE             d eps       ncg     rms          rms(c)
DAV:   1    -0.156095049649E+04   -0.41104E-03   -0.29091E-02 11344   0.228E-01    0.322E-02
DAV:   2    -0.156095051314E+04   -0.16656E-04   -0.51293E-04 17776   0.361E-02    0.314E-02
DAV:   3    -0.156095045349E+04    0.59646E-04   -0.20828E-04 16832   0.249E-02    0.162E-02
DAV:   4    -0.156095043715E+04    0.16349E-04   -0.34810E-05  8312   0.913E-03    0.971E-03
DAV:   5    -0.156095042591E+04    0.11233E-04   -0.16401E-05  6424   0.719E-03    0.483E-03
DAV:   6    -0.156095042268E+04    0.32300E-05   -0.57998E-06  6336   0.538E-03
  13 F= -.15609504E+04 E0= -.15609618E+04  d E =-.334465E-03
       N       E                     dE             d eps       ncg     rms          rms(c)
DAV:   1    -0.156095069450E+04   -0.26859E-03   -0.19434E-02 11344   0.186E-01    0.220E-02
DAV:   2    -0.156095072202E+04   -0.27526E-04   -0.22040E-04 16904   0.210E-02    0.193E-02
DAV:   3    -0.156095070853E+04    0.13498E-04   -0.50997E-05 10453   0.136E-02    0.123E-02
DAV:   4    -0.156095071491E+04   -0.63805E-05   -0.20260E-05  6512   0.746E-03    0.499E-03
DAV:   5    -0.156095071897E+04   -0.40625E-05   -0.73621E-06  6320   0.581E-03
  14 F= -.15609507E+04 E0= -.15609621E+04  d E =-.296287E-03
       N       E                     dE             d eps       ncg     rms          rms(c)
DAV:   1    -0.156095097959E+04   -0.26469E-03   -0.22186E-02 11344   0.196E-01    0.217E-02
DAV:   2    -0.156095100328E+04   -0.23686E-04   -0.29507E-04 17600   0.271E-02    0.238E-02
DAV:   3    -0.156095097023E+04    0.33051E-04   -0.10544E-04 15088   0.182E-02    0.123E-02
DAV:   4    -0.156095096254E+04    0.76930E-05   -0.17388E-05  6768   0.686E-03    0.714E-03
DAV:   5    -0.156095095737E+04    0.51676E-05   -0.88788E-06  6320   0.596E-03
  15 F= -.15609510E+04 E0= -.15609623E+04  d E =-.238400E-03
       N       E                     dE             d eps       ncg     rms          rms(c)
DAV:   1    -0.156095113303E+04   -0.17049E-03   -0.17454E-02 11350   0.175E-01    0.177E-02
DAV:   2    -0.156095115535E+04   -0.22314E-04   -0.17610E-04 16544   0.182E-02    0.158E-02
DAV:   3    -0.156095114716E+04    0.81817E-05   -0.27446E-05  8344   0.108E-02    0.106E-02
DAV:   4    -0.156095115231E+04   -0.51499E-05   -0.17582E-05  6352   0.666E-03    0.397E-03
DAV:   5    -0.156095115487E+04   -0.25559E-05   -0.62728E-06  6160   0.553E-03
  16 F= -.15609512E+04 E0= -.15609625E+04  d E =-.197500E-03
       N       E                     dE             d eps       ncg     rms          rms(c)
DAV:   1    -0.156095127338E+04   -0.12107E-03   -0.62374E-03 11350   0.106E-01    0.148E-02
DAV:   2    -0.156095126639E+04    0.69864E-05   -0.79672E-05 13192   0.153E-02    0.127E-02
DAV:   3    -0.156095125620E+04    0.10196E-04   -0.29656E-05  8552   0.108E-02    0.727E-03
DAV:   4    -0.156095125026E+04    0.59341E-05   -0.93311E-06  6136   0.516E-03    0.418E-03
DAV:   5    -0.156095124541E+04    0.48485E-05   -0.47976E-06  6080   0.404E-03
  17 F= -.15609512E+04 E0= -.15609626E+04  d E =-.905456E-04
       N       E                     dE             d eps       ncg     rms          rms(c)
DAV:   1    -0.156095135856E+04   -0.10830E-03   -0.98998E-03 11350   0.131E-01    0.130E-02
DAV:   2    -0.156095137073E+04   -0.12170E-04   -0.91857E-05 14288   0.132E-02    0.113E-02
DAV:   3    -0.156095136761E+04    0.31269E-05   -0.15604E-05  7192   0.789E-03    0.804E-03
DAV:   4    -0.156095137134E+04   -0.37285E-05   -0.10184E-05  6080   0.489E-03    0.234E-03
DAV:   5    -0.156095137243E+04   -0.10944E-05   -0.32722E-06  6080   0.371E-03
  18 F= -.15609514E+04 E0= -.15609627E+04  d E =-.127015E-03
       N       E                     dE             d eps       ncg     rms          rms(c)
DAV:   1    -0.156095148178E+04   -0.11045E-03   -0.10169E-02 11350   0.133E-01    0.133E-02
DAV:   2    -0.156095148380E+04   -0.20183E-05   -0.10132E-04 14992   0.144E-02    0.118E-02
DAV:   3    -0.156095147743E+04    0.63732E-05   -0.18676E-05  7600   0.913E-03    0.799E-03
DAV:   4    -0.156095147324E+04    0.41834E-05   -0.95902E-06  6104   0.499E-03    0.413E-03
DAV:   5    -0.156095147041E+04    0.28315E-05   -0.46455E-06  6072   0.428E-03
  19 F= -.15609515E+04 E0= -.15609628E+04  d E =-.979829E-04
       N       E                     dE             d eps       ncg     rms          rms(c)
DAV:   1    -0.156095152290E+04   -0.49655E-04   -0.34264E-03 11350   0.779E-02    0.890E-03
DAV:   2    -0.156095152902E+04   -0.61203E-05   -0.21874E-05  7472   0.790E-03    0.647E-03
DAV:   3    -0.156095152986E+04   -0.84458E-06   -0.84033E-06  6344   0.562E-03    0.471E-03
DAV:   4    -0.156095153397E+04   -0.41107E-05   -0.51351E-06  6056   0.392E-03    0.168E-03
DAV:   5    -0.156095153552E+04   -0.15486E-05   -0.25972E-06  6056   0.297E-03
  20 F= -.15609515E+04 E0= -.15609629E+04  d E =-.651103E-04
       N       E                     dE             d eps       ncg     rms          rms(c)
DAV:   1    -0.156095160636E+04   -0.72387E-04   -0.52430E-03 11350   0.953E-02    0.102E-02
DAV:   2    -0.156095160371E+04    0.26555E-05   -0.50630E-05 10904   0.101E-02    0.798E-03
DAV:   3    -0.156095160143E+04    0.22764E-05   -0.11500E-05  6648   0.649E-03    0.588E-03
DAV:   4    -0.156095159803E+04    0.34015E-05   -0.48465E-06  6032   0.368E-03    0.307E-03
DAV:   5    -0.156095159574E+04    0.22925E-05   -0.26227E-06  6032   0.303E-03
  21 F= -.15609516E+04 E0= -.15609629E+04  d E =-.602124E-04
       N       E                     dE             d eps       ncg     rms          rms(c)
DAV:   1    -0.156095164454E+04   -0.46516E-04   -0.38272E-03 11350   0.813E-02    0.773E-03
DAV:   2    -0.156095164874E+04   -0.41998E-05   -0.22955E-05  7440   0.750E-03    0.596E-03
DAV:   3    -0.156095164940E+04   -0.65740E-06   -0.83329E-06  6160   0.478E-03    0.450E-03
DAV:   4    -0.156095165227E+04   -0.28721E-05   -0.55579E-06  6008   0.366E-03    0.116E-03
DAV:   5    -0.156095165281E+04   -0.53823E-06   -0.25993E-06  6008   0.278E-03
  22 F= -.15609517E+04 E0= -.15609630E+04  d E =-.570760E-04
       N       E                     dE             d eps       ncg     rms          rms(c)
DAV:   1    -0.156095171065E+04   -0.58382E-04   -0.53686E-03 11350   0.962E-02    0.971E-03
DAV:   2    -0.156095170866E+04    0.19966E-05   -0.50575E-05 10976   0.951E-03    0.742E-03
DAV:   3    -0.156095170707E+04    0.15871E-05   -0.97248E-06  6312   0.582E-03    0.569E-03
DAV:   4    -0.156095170388E+04    0.31949E-05   -0.42360E-06  5936   0.354E-03    0.281E-03
DAV:   5    -0.156095170188E+04    0.19994E-05   -0.23255E-06  5888   0.280E-03
  23 F= -.15609517E+04 E0= -.15609630E+04  d E =-.490652E-04
       N       E                     dE             d eps       ncg     rms          rms(c)
DAV:   1    -0.156095171911E+04   -0.15237E-04   -0.69315E-04 11350   0.354E-02    0.489E-03
DAV:   2    -0.156095172272E+04   -0.36078E-05   -0.58005E-06  5816   0.382E-03    0.314E-03
DAV:   3    -0.156095172373E+04   -0.10119E-05   -0.23650E-06  5810   0.291E-03    0.241E-03
DAV:   4    -0.156095172575E+04   -0.20219E-05   -0.13678E-06  5816   0.203E-03    0.107E-03
DAV:   5    -0.156095172686E+04   -0.11066E-05   -0.76156E-07  5816   0.147E-03
  24 F= -.15609517E+04 E0= -.15609631E+04  d E =-.249841E-04
       N       E                     dE             d eps       ncg     rms          rms(c)
DAV:   1    -0.156095177196E+04   -0.46203E-04   -0.42015E-03 11350   0.849E-02    0.778E-03
DAV:   2    -0.156095177150E+04    0.45510E-06   -0.24007E-05  7976   0.763E-03    0.590E-03
DAV:   3    -0.156095177128E+04    0.22159E-06   -0.84297E-06  6128   0.475E-03    0.455E-03
DAV:   4    -0.156095176966E+04    0.16190E-05   -0.52905E-06  5864   0.369E-03    0.140E-03
DAV:   5    -0.156095176955E+04    0.11222E-06   -0.27030E-06  5864   0.279E-03
  25 F= -.15609518E+04 E0= -.15609631E+04  d E =-.426881E-04
       N       E                     dE             d eps       ncg     rms          rms(c)
DAV:   1    -0.156095182043E+04   -0.50765E-04   -0.99905E-03 11308   0.131E-01    0.122E-02
DAV:   2    -0.156095183072E+04   -0.10291E-04   -0.95493E-05 14944   0.115E-02    0.918E-03
DAV:   3    -0.156095183188E+04   -0.11671E-05   -0.67676E-06  6219   0.476E-03    0.641E-03
DAV:   4    -0.156095183375E+04   -0.18672E-05   -0.40908E-06  6080   0.440E-03    0.244E-03
DAV:   5    -0.156095183485E+04   -0.10948E-05   -0.18381E-06  5912   0.300E-03
  26 F= -.15609518E+04 E0= -.15609632E+04  d E =-.652976E-04
       N       E                     dE             d eps       ncg     rms          rms(c)
DAV:   1    -0.156095183106E+04    0.26876E-05   -0.66201E-04 11350   0.354E-02    0.607E-03
DAV:   2    -0.156095182450E+04    0.65634E-05   -0.48278E-06  5759   0.393E-03    0.348E-03
DAV:   3    -0.156095182258E+04    0.19188E-05   -0.19442E-06  5759   0.323E-03    0.278E-03
DAV:   4    -0.156095181977E+04    0.28161E-05   -0.99069E-07  5759   0.221E-03    0.116E-03
DAV:   5    -0.156095181826E+04    0.15076E-05   -0.55644E-07  5759   0.129E-03
  27 F= -.15609518E+04 E0= -.15609632E+04  d E =0.165883E-04
       N       E                     dE             d eps       ncg     rms          rms(c)
DAV:   1    -0.156095185189E+04   -0.32127E-04   -0.37064E-03 11350   0.797E-02    0.675E-03
DAV:   2    -0.156095185267E+04   -0.77300E-06   -0.18020E-05  6263   0.663E-03    0.512E-03
DAV:   3    -0.156095185281E+04   -0.14736E-06   -0.57152E-06  5831   0.371E-03    0.384E-03
DAV:   4    -0.156095185262E+04    0.19108E-06   -0.39853E-06  5759   0.323E-03    0.883E-04
DAV:   5    -0.156095185275E+04   -0.13168E-06   -0.17000E-06  5759   0.216E-03
  28 F= -.15609519E+04 E0= -.15609632E+04  d E =-.344959E-04
       N       E                     dE             d eps       ncg     rms          rms(c)
DAV:   1    -0.156095194534E+04   -0.92713E-04   -0.67943E-02 11284   0.341E-01    0.294E-02
DAV:   2    -0.156095198173E+04   -0.36393E-04   -0.57564E-04 16744   0.287E-02    0.230E-02
DAV:   3    -0.156095197592E+04    0.58038E-05   -0.34606E-05  9296   0.106E-02    0.170E-02
DAV:   4    -0.156095196656E+04    0.93683E-05   -0.30921E-05  8200   0.105E-02    0.456E-03
DAV:   5    -0.156095196590E+04    0.65828E-06   -0.84294E-06  6336   0.628E-03
  29 F= -.15609520E+04 E0= -.15609633E+04  d E =-.113144E-03
       N       E                     dE             d eps       ncg     rms          rms(c)
DAV:   1    -0.156095198973E+04   -0.23171E-04   -0.10109E-02 11308   0.132E-01    0.107E-02
DAV:   2    -0.156095199571E+04   -0.59828E-05   -0.92365E-05 14784   0.116E-02    0.885E-03
DAV:   3    -0.156095199455E+04    0.11626E-05   -0.66747E-06  6327   0.500E-03    0.712E-03
DAV:   4    -0.156095199261E+04    0.19424E-05   -0.52619E-06  5984   0.366E-03    0.237E-03
DAV:   5    -0.156095199227E+04    0.33383E-06   -0.19340E-06  5984   0.290E-03
  30 F= -.15609520E+04 E0= -.15609633E+04  d E =-.263734E-04
       N       E                     dE             d eps       ncg     rms          rms(c)
DAV:   1    -0.156095200066E+04   -0.80551E-05   -0.21704E-03 11326   0.610E-02    0.496E-03
DAV:   2    -0.156095200256E+04   -0.19027E-05   -0.12430E-05  6128   0.546E-03    0.387E-03
DAV:   3    -0.156095200301E+04   -0.44600E-06   -0.43601E-06  5948   0.326E-03    0.296E-03
DAV:   4    -0.156095200410E+04   -0.10925E-05   -0.27372E-06  5759   0.260E-03    0.587E-04
DAV:   5    -0.156095200429E+04   -0.18382E-06   -0.13307E-06  5759   0.190E-03
  31 F= -.15609520E+04 E0= -.15609633E+04  d E =-.120140E-04
       N       E                     dE             d eps       ncg     rms          rms(c)
DAV:   1    -0.156095201049E+04   -0.63851E-05   -0.81176E-04 11332   0.372E-02    0.350E-03
DAV:   2    -0.156095200948E+04    0.10070E-05   -0.56782E-06  5750   0.356E-03    0.256E-03
DAV:   3    -0.156095200911E+04    0.36595E-06   -0.23168E-06  5741   0.234E-03    0.184E-03
DAV:   4    -0.156095200824E+04    0.87353E-06   -0.13453E-06  5741   0.188E-03    0.675E-04
DAV:   5    -0.156095200805E+04    0.18859E-06   -0.78110E-07  5741   0.144E-03
  32 F= -.15609520E+04 E0= -.15609634E+04  d E =-.376619E-05
       N       E                     dE             d eps       ncg     rms          rms(c)
DAV:   1    -0.156095200613E+04    0.21149E-05   -0.54150E-05 10662   0.102E-02    0.175E-03
DAV:   2    -0.156095200752E+04   -0.13933E-05   -0.63888E-07  5741   0.137E-03    0.964E-04
DAV:   3    -0.156095200798E+04   -0.46454E-06   -0.21076E-07  5741   0.101E-03    0.768E-04
DAV:   4    -0.156095200852E+04   -0.54021E-06   -0.91817E-08  5741   0.650E-04    0.379E-04
DAV:   5    -0.156095200896E+04   -0.43698E-06   -0.53328E-08  5741   0.394E-04
  33 F= -.15609520E+04 E0= -.15609634E+04  d E =-.908737E-06
       N       E                     dE             d eps       ncg     rms          rms(c)
DAV:   1    -0.156095201267E+04   -0.41474E-05   -0.39631E-04 11310   0.260E-02    0.224E-03
DAV:   2    -0.156095201300E+04   -0.32751E-06   -0.20940E-06  5741   0.224E-03    0.171E-03
DAV:   3    -0.156095201308E+04   -0.77081E-07   -0.71969E-07  5741   0.129E-03    0.132E-03
DAV:   4    -0.156095201328E+04   -0.20317E-06   -0.49510E-07  5741   0.109E-03    0.324E-04
DAV:   5    -0.156095201329E+04   -0.15209E-07   -0.22637E-07  5741   0.772E-04
  34 F= -.15609520E+04 E0= -.15609634E+04  d E =-.433334E-05
       N       E                     dE             d eps       ncg     rms          rms(c)
DAV:   1    -0.156095202048E+04   -0.72025E-05   -0.11606E-03 11326   0.448E-02    0.463E-03
DAV:   2    -0.156095201786E+04    0.26181E-05   -0.69738E-06  5741   0.409E-03    0.311E-03
DAV:   3    -0.156095201688E+04    0.98665E-06   -0.26563E-06  5732   0.265E-03    0.226E-03
DAV:   4    -0.156095201556E+04    0.13195E-05   -0.14039E-06  5741   0.207E-03    0.108E-03
DAV:   5    -0.156095201486E+04    0.69784E-06   -0.84351E-07  5738   0.148E-03
  35 F= -.15609520E+04 E0= -.15609634E+04  d E =-.156524E-05
       N       E                     dE             d eps       ncg     rms          rms(c)
DAV:   1    -0.156095201235E+04    0.32101E-05   -0.13437E-04 11088   0.160E-02    0.277E-03
DAV:   2    -0.156095201444E+04   -0.20968E-05   -0.10170E-06  5741   0.179E-03    0.151E-03
DAV:   3    -0.156095201527E+04   -0.82324E-06   -0.40328E-07  5738   0.137E-03    0.121E-03
DAV:   4    -0.156095201605E+04   -0.78004E-06   -0.16193E-07  5741   0.895E-04    0.581E-04
DAV:   5    -0.156095201678E+04   -0.73558E-06   -0.91943E-08  5741   0.506E-04
  36 F= -.15609520E+04 E0= -.15609634E+04  d E =-.192333E-05
       N       E                     dE             d eps       ncg     rms          rms(c)
DAV:   1    -0.156095201949E+04   -0.34400E-05   -0.28369E-04 11221   0.220E-02    0.185E-03
DAV:   2    -0.156095201959E+04   -0.10717E-06   -0.14465E-06  5732   0.187E-03    0.140E-03
DAV:   3    -0.156095201962E+04   -0.21729E-07   -0.48047E-07  5729   0.103E-03    0.104E-03
DAV:   4    -0.156095201962E+04   -0.67294E-08   -0.31876E-07  5732   0.895E-04    0.262E-04
DAV:   5    -0.156095201962E+04   -0.23665E-08   -0.14530E-07  5732   0.608E-04
  37 F= -.15609520E+04 E0= -.15609634E+04  d E =-.284242E-05
       N       E                     dE             d eps       ncg     rms          rms(c)
DAV:   1    -0.156095202725E+04   -0.76300E-05   -0.55152E-03 11290   0.971E-02    0.838E-03
DAV:   2    -0.156095202821E+04   -0.95976E-06   -0.30936E-05  8608   0.812E-03    0.630E-03
DAV:   3    -0.156095202811E+04    0.99817E-07   -0.97283E-06  6092   0.463E-03    0.395E-03
DAV:   4    -0.156095202749E+04    0.62664E-06   -0.55490E-06  5840   0.396E-03    0.109E-03
DAV:   5    -0.156095202770E+04   -0.21189E-06   -0.26241E-06  5804   0.250E-03
  38 F= -.15609520E+04 E0= -.15609634E+04  d E =-.807283E-05
