       N       E                     dE             d eps       ncg     rms          rms(c)
DAV:   1     0.258210141399E+04    0.25821E+04   -0.30941E+05 12272   0.144E+03
DAV:   2    -0.119604999934E+04   -0.37782E+04   -0.36166E+04 14108   0.333E+02
DAV:   3    -0.168692158388E+04   -0.49087E+03   -0.46439E+03 18752   0.827E+01
DAV:   4    -0.171222236668E+04   -0.25301E+02   -0.24415E+02 17216   0.184E+01
DAV:   5    -0.171327803069E+04   -0.10557E+01   -0.10396E+01 19216   0.389E+00    0.451E+01
DAV:   6    -0.165756416964E+04    0.55714E+02   -0.13517E+02 18384   0.154E+01    0.237E+01
DAV:   7    -0.164260685588E+04    0.14957E+02   -0.82862E+01 17688   0.142E+01    0.146E+01
DAV:   8    -0.163312662916E+04    0.94802E+01   -0.41746E+01 17160   0.119E+01    0.528E+00
DAV:   9    -0.163186795234E+04    0.12587E+01   -0.13858E+01 17584   0.622E+00    0.210E+00
DAV:  10    -0.163190346600E+04   -0.35514E-01   -0.22765E+00 16360   0.217E+00    0.152E+00
DAV:  11    -0.163186087825E+04    0.42588E-01   -0.48039E-01 16144   0.914E-01    0.712E-01
DAV:  12    -0.163184822064E+04    0.12658E-01   -0.65115E-02 16352   0.411E-01    0.369E-01
DAV:  13    -0.163184363132E+04    0.45893E-02   -0.19304E-02 16064   0.226E-01    0.146E-01
DAV:  14    -0.163184317899E+04    0.45233E-03   -0.61474E-03 15376   0.121E-01    0.588E-02
DAV:  15    -0.163184317988E+04   -0.89465E-06   -0.15623E-03 14656   0.632E-02    0.284E-02
DAV:  16    -0.163184317472E+04    0.51636E-05   -0.28551E-04 15752   0.269E-02    0.157E-02
DAV:  17    -0.163184316327E+04    0.11447E-04   -0.57107E-05 11712   0.134E-02    0.789E-03
DAV:  18    -0.163184315738E+04    0.58970E-05   -0.16827E-05  8328   0.726E-03
   1 F= -.16318432E+04 E0= -.16318189E+04  d E =-.163184E+04
       N       E                     dE             d eps       ncg     rms          rms(c)
DAV:   1    -0.163248405603E+04   -0.64089E+00   -0.26871E+02 12264   0.229E+01    0.655E+00
DAV:   2    -0.163060456635E+04    0.18795E+01   -0.71657E+00 16440   0.386E+00    0.318E+00
DAV:   3    -0.163019139372E+04    0.41317E+00   -0.23920E+00 16824   0.243E+00    0.203E+00
DAV:   4    -0.163000060097E+04    0.19079E+00   -0.85788E-01 16936   0.181E+00    0.961E-01
DAV:   5    -0.162995142914E+04    0.49172E-01   -0.39539E-01 15992   0.111E+00    0.349E-01
DAV:   6    -0.162995411801E+04   -0.26889E-02   -0.71877E-02 15176   0.411E-01    0.260E-01
DAV:   7    -0.162995487593E+04   -0.75792E-03   -0.12832E-02 16448   0.162E-01    0.161E-01
DAV:   8    -0.162995577853E+04   -0.90260E-03   -0.56952E-03 15736   0.111E-01    0.870E-02
DAV:   9    -0.162995568940E+04    0.89131E-04   -0.13825E-03 14904   0.622E-02    0.467E-02
DAV:  10    -0.162995559210E+04    0.97295E-04   -0.68348E-04 16336   0.341E-02    0.178E-02
DAV:  11    -0.162995559989E+04   -0.77868E-05   -0.13032E-04 15312   0.183E-02    0.144E-02
DAV:  12    -0.162995560588E+04   -0.59970E-05   -0.25148E-05  8960   0.960E-03
   2 F= -.16299556E+04 E0= -.16299463E+04  d E =0.188755E+01
       N       E                     dE             d eps       ncg     rms          rms(c)
DAV:   1    -0.163427874942E+04   -0.43231E+01   -0.78836E+01 12264   0.142E+01    0.488E+00
DAV:   2    -0.163314020986E+04    0.11385E+01   -0.17630E+00 13040   0.202E+00    0.227E+00
DAV:   3    -0.163288444706E+04    0.25576E+00   -0.73960E-01 14352   0.139E+00    0.967E-01
DAV:   4    -0.163283247880E+04    0.51968E-01   -0.24764E-01 14976   0.105E+00    0.346E-01
DAV:   5    -0.163282808980E+04    0.43890E-02   -0.84803E-02 15144   0.544E-01    0.156E-01
DAV:   6    -0.163282970685E+04   -0.16170E-02   -0.16433E-02 15704   0.197E-01    0.116E-01
DAV:   7    -0.163283048027E+04   -0.77343E-03   -0.27874E-03 16304   0.727E-02    0.625E-02
DAV:   8    -0.163283097771E+04   -0.49744E-03   -0.81431E-04 14776   0.455E-02    0.333E-02
DAV:   9    -0.163283112629E+04   -0.14858E-03   -0.30760E-04 14592   0.268E-02    0.167E-02
DAV:  10    -0.163283119379E+04   -0.67498E-04   -0.16871E-04 15808   0.178E-02    0.106E-02
DAV:  11    -0.163283120203E+04   -0.82421E-05   -0.16468E-05  7952   0.760E-03
   3 F= -.16328312E+04 E0= -.16328109E+04  d E =-.287560E+01
       N       E                     dE             d eps       ncg     rms          rms(c)
DAV:   1    -0.163287022948E+04   -0.39036E-01   -0.46088E+00 12264   0.275E+00    0.450E-01
DAV:   2    -0.163286892195E+04    0.13075E-02   -0.81615E-02 17288   0.464E-01    0.270E-01
DAV:   3    -0.163286653131E+04    0.23906E-02   -0.19306E-02 18402   0.244E-01    0.196E-01
DAV:   4    -0.163286518014E+04    0.13512E-02   -0.56249E-03 17416   0.135E-01    0.948E-02
DAV:   5    -0.163286479332E+04    0.38682E-03   -0.25934E-03 15616   0.841E-02    0.329E-02
DAV:   6    -0.163286480942E+04   -0.16101E-04   -0.45352E-04 16760   0.314E-02    0.236E-02
DAV:   7    -0.163286480890E+04    0.51844E-06   -0.73310E-05 14120   0.147E-02
   4 F= -.16328648E+04 E0= -.16328450E+04  d E =-.336069E-01
       N       E                     dE             d eps       ncg     rms          rms(c)
DAV:   1    -0.163286794232E+04   -0.31329E-02   -0.49794E-01 12396   0.888E-01    0.106E-01
DAV:   2    -0.163286828688E+04   -0.34456E-03   -0.72347E-03 16944   0.149E-01    0.759E-02
DAV:   3    -0.163286803603E+04    0.25085E-03   -0.17293E-03 18138   0.764E-02    0.539E-02
DAV:   4    -0.163286797844E+04    0.57584E-04   -0.34608E-04 17552   0.303E-02    0.278E-02
DAV:   5    -0.163286796916E+04    0.92794E-05   -0.17747E-04 15072   0.200E-02    0.805E-03
DAV:   6    -0.163286796687E+04    0.22907E-05   -0.20386E-05  8528   0.879E-03
   5 F= -.16328680E+04 E0= -.16328482E+04  d E =-.315797E-02
       N       E                     dE             d eps       ncg     rms          rms(c)
DAV:   1    -0.163286875614E+04   -0.78697E-03   -0.12373E-01 12432   0.449E-01    0.636E-02
DAV:   2    -0.163286873564E+04    0.20495E-04   -0.16876E-03 16496   0.793E-02    0.431E-02
DAV:   3    -0.163286863701E+04    0.98633E-04   -0.49857E-04 18000   0.420E-02    0.301E-02
DAV:   4    -0.163286858314E+04    0.53865E-04   -0.12747E-04 15408   0.191E-02    0.112E-02
DAV:   5    -0.163286857027E+04    0.12875E-04   -0.33992E-05  9296   0.106E-02    0.434E-03
DAV:   6    -0.163286857117E+04   -0.90770E-06   -0.76394E-06  7192   0.628E-03
   6 F= -.16328686E+04 E0= -.16328489E+04  d E =-.604303E-03
       N       E                     dE             d eps       ncg     rms          rms(c)
DAV:   1    -0.163286887707E+04   -0.30680E-03   -0.12958E-02 12472   0.169E-01    0.509E-02
DAV:   2    -0.163286880562E+04    0.71453E-04   -0.21643E-04 14824   0.225E-02    0.246E-02
DAV:   3    -0.163286880754E+04   -0.19230E-05   -0.86195E-05 14432   0.150E-02    0.112E-02
DAV:   4    -0.163286881473E+04   -0.71869E-05   -0.26908E-05  9512   0.119E-02    0.406E-03
DAV:   5    -0.163286882007E+04   -0.53478E-05   -0.97257E-06  6888   0.629E-03
   7 F= -.16328688E+04 E0= -.16328491E+04  d E =-.248900E-03
       N       E                     dE             d eps       ncg     rms          rms(c)
DAV:   1    -0.163286909849E+04   -0.28377E-03   -0.22819E-02 12432   0.194E-01    0.299E-02
DAV:   2    -0.163286907338E+04    0.25109E-04   -0.29923E-04 16832   0.326E-02    0.193E-02
DAV:   3    -0.163286905180E+04    0.21579E-04   -0.88245E-05 15152   0.181E-02    0.136E-02
DAV:   4    -0.163286903322E+04    0.18584E-04   -0.21482E-05  7928   0.857E-03    0.479E-03
DAV:   5    -0.163286902835E+04    0.48703E-05   -0.79911E-06  6864   0.507E-03
   8 F= -.16328690E+04 E0= -.16328493E+04  d E =-.208275E-03
       N       E                     dE             d eps       ncg     rms          rms(c)
DAV:   1    -0.163286911342E+04   -0.80203E-04   -0.12321E-02 12432   0.140E-01    0.161E-02
DAV:   2    -0.163286912473E+04   -0.11309E-04   -0.12338E-04 15768   0.197E-02    0.119E-02
DAV:   3    -0.163286912138E+04    0.33529E-05   -0.22007E-05  9256   0.967E-03    0.888E-03
DAV:   4    -0.163286912537E+04   -0.39875E-05   -0.16035E-05  6896   0.591E-03    0.176E-03
DAV:   5    -0.163286912529E+04    0.72222E-07   -0.39813E-06  6712   0.399E-03
   9 F= -.16328691E+04 E0= -.16328494E+04  d E =-.969455E-04
       N       E                     dE             d eps       ncg     rms          rms(c)
DAV:   1    -0.163286917314E+04   -0.47774E-04   -0.30347E-03 12432   0.730E-02    0.149E-02
DAV:   2    -0.163286915331E+04    0.19832E-04   -0.30413E-05  9080   0.106E-02    0.819E-03
DAV:   3    -0.163286914688E+04    0.64338E-05   -0.11887E-05  7784   0.839E-03    0.531E-03
DAV:   4    -0.163286913918E+04    0.76911E-05   -0.69825E-06  6696   0.558E-03    0.162E-03
DAV:   5    -0.163286913763E+04    0.15498E-05   -0.31526E-06  6696   0.340E-03
  10 F= -.16328691E+04 E0= -.16328495E+04  d E =-.123401E-04
       N       E                     dE             d eps       ncg     rms          rms(c)
DAV:   1    -0.163286916814E+04   -0.28953E-04   -0.20822E-03 12432   0.598E-02    0.111E-02
DAV:   2    -0.163286917279E+04   -0.46533E-05   -0.17659E-05  7032   0.733E-03    0.625E-03
DAV:   3    -0.163286917701E+04   -0.42186E-05   -0.74324E-06  6728   0.555E-03    0.317E-03
DAV:   4    -0.163286918013E+04   -0.31223E-05   -0.38276E-06  6648   0.447E-03    0.115E-03
DAV:   5    -0.163286918124E+04   -0.11045E-05   -0.19414E-06  6640   0.262E-03
  11 F= -.16328692E+04 E0= -.16328495E+04  d E =-.436015E-04
       N       E                     dE             d eps       ncg     rms          rms(c)
DAV:   1    -0.163286920942E+04   -0.29290E-04   -0.28949E-03 12432   0.677E-02    0.744E-03
DAV:   2    -0.163286920809E+04    0.13317E-05   -0.18602E-05  8520   0.764E-03    0.526E-03
DAV:   3    -0.163286920735E+04    0.74425E-06   -0.61269E-06  6696   0.486E-03    0.370E-03
DAV:   4    -0.163286920545E+04    0.18974E-05   -0.42097E-06  6528   0.374E-03    0.604E-04
DAV:   5    -0.163286920576E+04   -0.30982E-06   -0.20046E-06  6520   0.268E-03
  12 F= -.16328692E+04 E0= -.16328495E+04  d E =-.245220E-04
       N       E                     dE             d eps       ncg     rms          rms(c)
DAV:   1    -0.163286922143E+04   -0.15985E-04   -0.26507E-03 12432   0.652E-02    0.795E-03
DAV:   2    -0.163286922552E+04   -0.40902E-05   -0.17897E-05  7120   0.701E-03    0.526E-03
DAV:   3    -0.163286922821E+04   -0.26885E-05   -0.66987E-06  6624   0.451E-03    0.247E-03
DAV:   4    -0.163286923027E+04   -0.20600E-05   -0.35535E-06  6408   0.375E-03    0.789E-04
DAV:   5    -0.163286923050E+04   -0.22848E-06   -0.19437E-06  6408   0.257E-03
  13 F= -.16328692E+04 E0= -.16328495E+04  d E =-.247422E-04
       N       E                     dE             d eps       ncg     rms          rms(c)
DAV:   1    -0.163286924150E+04   -0.11232E-04   -0.15383E-04 12216   0.180E-02    0.535E-03
DAV:   2    -0.163286923563E+04    0.58786E-05   -0.30281E-06  6384   0.281E-03    0.258E-03
DAV:   3    -0.163286923242E+04    0.32068E-05   -0.14826E-06  6384   0.225E-03    0.113E-03
DAV:   4    -0.163286923098E+04    0.14390E-05   -0.68756E-07  6384   0.184E-03    0.465E-04
DAV:   5    -0.163286923041E+04    0.57108E-06   -0.36561E-07  6384   0.113E-03
  14 F= -.16328692E+04 E0= -.16328495E+04  d E =0.919586E-07
       N       E                     dE             d eps       ncg     rms          rms(c)
DAV:   1    -0.163286924262E+04   -0.11637E-04   -0.14468E-03 12432   0.478E-02    0.493E-03
DAV:   2    -0.163286924378E+04   -0.11649E-05   -0.82059E-06  6408   0.475E-03    0.357E-03
DAV:   3    -0.163286924442E+04   -0.64045E-06   -0.29436E-06  6384   0.282E-03    0.137E-03
DAV:   4    -0.163286924498E+04   -0.56295E-06   -0.15422E-06  6384   0.236E-03    0.508E-04
DAV:   5    -0.163286924491E+04    0.76203E-07   -0.82438E-07  6384   0.162E-03
  15 F= -.16328692E+04 E0= -.16328495E+04  d E =-.145002E-04
       N       E                     dE             d eps       ncg     rms          rms(c)
DAV:   1    -0.163286926397E+04   -0.18988E-04   -0.43200E-03 12432   0.827E-02    0.871E-03
DAV:   2    -0.163286926209E+04    0.18825E-05   -0.26159E-05  9304   0.828E-03    0.618E-03
DAV:   3    -0.163286925976E+04    0.23261E-05   -0.83772E-06  6792   0.470E-03    0.265E-03
DAV:   4    -0.163286925850E+04    0.12676E-05   -0.42129E-06  6504   0.390E-03    0.711E-04
DAV:   5    -0.163286925886E+04   -0.35846E-06   -0.21989E-06  6464   0.275E-03
  16 F= -.16328693E+04 E0= -.16328496E+04  d E =-.139468E-04
       N       E                     dE             d eps       ncg     rms          rms(c)
DAV:   1    -0.163286925113E+04    0.73642E-05   -0.64666E-04 12432   0.334E-02    0.595E-03
DAV:   2    -0.163286925450E+04   -0.33664E-05   -0.40269E-06  6384   0.336E-03    0.327E-03
DAV:   3    -0.163286925712E+04   -0.26227E-05   -0.15546E-06  6384   0.208E-03    0.147E-03
DAV:   4    -0.163286925863E+04   -0.15071E-05   -0.57813E-07  6384   0.162E-03    0.614E-04
DAV:   5    -0.163286925917E+04   -0.54245E-06   -0.22974E-07  6384   0.986E-04
  17 F= -.16328693E+04 E0= -.16328496E+04  d E =-.316005E-06
       N       E                     dE             d eps       ncg     rms          rms(c)
DAV:   1    -0.163286927018E+04   -0.11555E-04   -0.14217E-03 12432   0.475E-02    0.477E-03
DAV:   2    -0.163286926927E+04    0.91733E-06   -0.72086E-06  6384   0.447E-03    0.341E-03
DAV:   3    -0.163286926809E+04    0.11758E-05   -0.23855E-06  6384   0.237E-03    0.111E-03
DAV:   4    -0.163286926768E+04    0.41535E-06   -0.10846E-06  6384   0.189E-03    0.406E-04
DAV:   5    -0.163286926783E+04   -0.15008E-06   -0.55928E-07  6384   0.136E-03
  18 F= -.16328693E+04 E0= -.16328496E+04  d E =-.865394E-05
       N       E                     dE             d eps       ncg     rms          rms(c)
DAV:   1    -0.163286927632E+04   -0.86457E-05   -0.27330E-03 12432   0.657E-02    0.661E-03
DAV:   2    -0.163286927773E+04   -0.14124E-05   -0.15309E-05  6872   0.646E-03    0.483E-03
DAV:   3    -0.163286927844E+04   -0.71015E-06   -0.63379E-06  6568   0.365E-03    0.685E-04
DAV:   4    -0.163286927868E+04   -0.23750E-06   -0.25088E-06  6384   0.244E-03    0.446E-04
DAV:   5    -0.163286927877E+04   -0.85765E-07   -0.13701E-06  6384   0.189E-03
  19 F= -.16328693E+04 E0= -.16328496E+04  d E =-.109415E-04
       N       E                     dE             d eps       ncg     rms          rms(c)
DAV:   1    -0.163286928097E+04   -0.22843E-05   -0.35452E-04 12416   0.254E-02    0.546E-03
DAV:   2    -0.163286927508E+04    0.58834E-05   -0.25840E-06  6384   0.267E-03    0.287E-03
DAV:   3    -0.163286927149E+04    0.35918E-05   -0.12430E-06  6384   0.177E-03    0.107E-03
DAV:   4    -0.163286927015E+04    0.13403E-05   -0.39839E-07  6384   0.140E-03    0.484E-04
DAV:   5    -0.163286926971E+04    0.43831E-06   -0.15048E-07  6384   0.853E-04
  20 F= -.16328693E+04 E0= -.16328496E+04  d E =0.905533E-05
       N       E                     dE             d eps       ncg     rms          rms(c)
DAV:   1    -0.163286927364E+04   -0.34864E-05   -0.77069E-04 12432   0.353E-02    0.439E-03
DAV:   2    -0.163286927595E+04   -0.23132E-05   -0.42492E-06  6384   0.341E-03    0.281E-03
DAV:   3    -0.163286927790E+04   -0.19510E-05   -0.15661E-06  6384   0.186E-03    0.927E-04
DAV:   4    -0.163286927871E+04   -0.80962E-06   -0.64368E-07  6384   0.139E-03    0.426E-04
DAV:   5    -0.163286927877E+04   -0.63107E-07   -0.31952E-07  6384   0.104E-03
  21 F= -.16328693E+04 E0= -.16328496E+04  d E =-.906159E-05
       N       E                     dE             d eps       ncg     rms          rms(c)
DAV:   1    -0.163286928143E+04   -0.27173E-05   -0.36958E-04 12328   0.241E-02    0.251E-03
DAV:   2    -0.163286928143E+04   -0.16112E-08   -0.23126E-06  6384   0.251E-03    0.183E-03
DAV:   3    -0.163286928127E+04    0.16161E-06   -0.10045E-06  6384   0.147E-03    0.269E-04
DAV:   4    -0.163286928130E+04   -0.31154E-07   -0.42509E-07  6384   0.101E-03    0.194E-04
DAV:   5    -0.163286928133E+04   -0.30051E-07   -0.23937E-07  6384   0.790E-04
  22 F= -.16328693E+04 E0= -.16328496E+04  d E =-.255544E-05
       N       E                     dE             d eps       ncg     rms          rms(c)
DAV:   1    -0.163286928173E+04   -0.43493E-06   -0.12450E-03 12432   0.446E-02    0.525E-03
DAV:   2    -0.163286928440E+04   -0.26623E-05   -0.74354E-06  6384   0.450E-03    0.348E-03
DAV:   3    -0.163286928650E+04   -0.21061E-05   -0.27941E-06  6384   0.253E-03    0.118E-03
DAV:   4    -0.163286928749E+04   -0.98368E-06   -0.12677E-06  6384   0.196E-03    0.515E-04
DAV:   5    -0.163286928753E+04   -0.47541E-07   -0.66801E-07  6384   0.149E-03
  23 F= -.16328693E+04 E0= -.16328496E+04  d E =-.620445E-05
       N       E                     dE             d eps       ncg     rms          rms(c)
DAV:   1    -0.163286928996E+04   -0.24715E-05   -0.28275E-04 12328   0.218E-02    0.345E-03
DAV:   2    -0.163286928692E+04    0.30381E-05   -0.15642E-06  6384   0.208E-03    0.197E-03
DAV:   3    -0.163286928484E+04    0.20837E-05   -0.58602E-07  6384   0.116E-03    0.733E-04
DAV:   4    -0.163286928403E+04    0.80298E-06   -0.18918E-07  6384   0.845E-04    0.337E-04
DAV:   5    -0.163286928385E+04    0.18579E-06   -0.70824E-08  6384   0.563E-04
  24 F= -.16328693E+04 E0= -.16328496E+04  d E =0.368657E-05
       N       E                     dE             d eps       ncg     rms          rms(c)
DAV:   1    -0.163286928522E+04   -0.11885E-05   -0.20399E-04 12208   0.180E-02    0.171E-03
DAV:   2    -0.163286928526E+04   -0.34786E-07   -0.10526E-06  6384   0.171E-03    0.124E-03
DAV:   3    -0.163286928523E+04    0.27147E-07   -0.37359E-07  6384   0.883E-04    0.193E-04
DAV:   4    -0.163286928524E+04   -0.14970E-07   -0.13037E-07  6384   0.562E-04    0.126E-04
DAV:   5    -0.163286928525E+04   -0.69044E-08   -0.68806E-08  6384   0.426E-04
  25 F= -.16328693E+04 E0= -.16328496E+04  d E =-.140381E-05
       N       E                     dE             d eps       ncg     rms          rms(c)
DAV:   1    -0.163286928732E+04   -0.20730E-05   -0.13877E-03 12432   0.468E-02    0.461E-03
DAV:   2    -0.163286928786E+04   -0.54823E-06   -0.73752E-06  6384   0.450E-03    0.338E-03
DAV:   3    -0.163286928803E+04   -0.16630E-06   -0.29484E-06  6384   0.247E-03    0.468E-04
DAV:   4    -0.163286928813E+04   -0.96008E-07   -0.11201E-06  6384   0.158E-03    0.286E-04
DAV:   5    -0.163286928817E+04   -0.47197E-07   -0.59905E-07  6384   0.123E-03
  26 F= -.16328693E+04 E0= -.16328496E+04  d E =-.292384E-05
