       N       E                     dE             d eps       ncg     rms          rms(c)
DAV:   1     0.193991857192E+04    0.19399E+04   -0.27705E+05 11188   0.142E+03
DAV:   2    -0.118451511655E+04   -0.31244E+04   -0.30033E+04 12886   0.266E+02
DAV:   3    -0.157743249367E+04   -0.39292E+03   -0.35693E+03 17528   0.825E+01
DAV:   4    -0.160260563884E+04   -0.25173E+02   -0.22725E+02 15856   0.162E+01
DAV:   5    -0.160376187232E+04   -0.11562E+01   -0.11267E+01 16664   0.447E+00    0.379E+01
DAV:   6    -0.156943928487E+04    0.34323E+02   -0.11832E+02 17936   0.155E+01    0.229E+01
DAV:   7    -0.155751287852E+04    0.11926E+02   -0.10028E+02 17560   0.162E+01    0.178E+01
DAV:   8    -0.154847553346E+04    0.90373E+01   -0.66594E+01 16624   0.117E+01    0.116E+01
DAV:   9    -0.154123813497E+04    0.72374E+01   -0.27859E+01 16216   0.850E+00    0.343E+00
DAV:  10    -0.154105632392E+04    0.18181E+00   -0.57398E+00 16072   0.328E+00    0.147E+00
DAV:  11    -0.154106467771E+04   -0.83538E-02   -0.65851E-01 15200   0.119E+00    0.110E+00
DAV:  12    -0.154104297366E+04    0.21704E-01   -0.20067E-01 14808   0.643E-01    0.679E-01
DAV:  13    -0.154103099455E+04    0.11979E-01   -0.69509E-02 14016   0.411E-01    0.399E-01
DAV:  14    -0.154102507736E+04    0.59172E-02   -0.24396E-02 14504   0.232E-01    0.190E-01
DAV:  15    -0.154102415744E+04    0.91992E-03   -0.83488E-03 16264   0.142E-01    0.982E-02
DAV:  16    -0.154102394664E+04    0.21080E-03   -0.28432E-03 15672   0.800E-02    0.467E-02
DAV:  17    -0.154102392781E+04    0.18824E-04   -0.74696E-04 13952   0.394E-02    0.266E-02
DAV:  18    -0.154102391299E+04    0.14824E-04   -0.16720E-04 14112   0.200E-02    0.155E-02
DAV:  19    -0.154102390419E+04    0.88008E-05   -0.49054E-05  9888   0.124E-02
   1 F= -.15410239E+04 E0= -.15410245E+04  d E =-.154102E+04
       N       E                     dE             d eps       ncg     rms          rms(c)
DAV:   1    -0.154440150458E+04   -0.33776E+01   -0.26531E+03 11172   0.797E+01    0.275E+01
DAV:   2    -0.151770345057E+04    0.26698E+02   -0.16687E+02 19048   0.186E+01    0.191E+01
DAV:   3    -0.150916083572E+04    0.85426E+01   -0.97422E+01 18440   0.141E+01    0.149E+01
DAV:   4    -0.150151961366E+04    0.76412E+01   -0.47736E+01 20072   0.925E+00    0.106E+01
DAV:   5    -0.149709805504E+04    0.44216E+01   -0.32047E+01 18352   0.676E+00    0.474E+00
DAV:   6    -0.149654616021E+04    0.55189E+00   -0.85504E+00 18384   0.378E+00    0.313E+00
DAV:   7    -0.149630312883E+04    0.24303E+00   -0.16588E+00 17352   0.177E+00    0.213E+00
DAV:   8    -0.149623195741E+04    0.71171E-01   -0.47907E-01 17680   0.764E-01    0.119E+00
DAV:   9    -0.149621920621E+04    0.12751E-01   -0.26980E-01 17952   0.537E-01    0.592E-01
DAV:  10    -0.149621796419E+04    0.12420E-02   -0.92218E-02 18096   0.410E-01    0.491E-01
DAV:  11    -0.149620920378E+04    0.87604E-02   -0.41252E-02 18400   0.243E-01    0.217E-01
DAV:  12    -0.149620876709E+04    0.43669E-03   -0.11377E-02 18016   0.118E-01    0.115E-01
DAV:  13    -0.149620927509E+04   -0.50800E-03   -0.28262E-03 17384   0.701E-02    0.881E-02
DAV:  14    -0.149620950748E+04   -0.23239E-03   -0.17459E-03 17328   0.557E-02    0.678E-02
DAV:  15    -0.149620946741E+04    0.40072E-04   -0.93584E-04 16624   0.386E-02    0.342E-02
DAV:  16    -0.149620945060E+04    0.16811E-04   -0.33153E-04 18376   0.202E-02    0.145E-02
DAV:  17    -0.149620945810E+04   -0.75060E-05   -0.45572E-05  9144   0.963E-03
   2 F= -.14962095E+04 E0= -.14962155E+04  d E =0.448144E+02
       N       E                     dE             d eps       ncg     rms          rms(c)
DAV:   1    -0.157422952970E+04   -0.78020E+02   -0.13413E+03 11172   0.628E+01    0.193E+01
DAV:   2    -0.155975741170E+04    0.14472E+02   -0.49066E+01 17280   0.116E+01    0.105E+01
DAV:   3    -0.155664316057E+04    0.31143E+01   -0.33101E+01 18040   0.887E+00    0.844E+00
DAV:   4    -0.155371721982E+04    0.29259E+01   -0.15070E+01 17512   0.584E+00    0.544E+00
DAV:   5    -0.155221529176E+04    0.15019E+01   -0.80626E+00 16176   0.423E+00    0.185E+00
DAV:   6    -0.155213272535E+04    0.82566E-01   -0.18295E+00 15440   0.191E+00    0.973E-01
DAV:   7    -0.155213693838E+04   -0.42130E-02   -0.24792E-01 14480   0.756E-01    0.775E-01
DAV:   8    -0.155213773269E+04   -0.79431E-03   -0.70346E-02 15568   0.346E-01    0.397E-01
DAV:   9    -0.155215057029E+04   -0.12838E-01   -0.59323E-02 16168   0.273E-01    0.265E-01
DAV:  10    -0.155214991384E+04    0.65645E-03   -0.11524E-02 16752   0.183E-01    0.164E-01
DAV:  11    -0.155214928882E+04    0.62502E-03   -0.49126E-03 17344   0.983E-02    0.773E-02
DAV:  12    -0.155214963901E+04   -0.35019E-03   -0.19763E-03 16208   0.565E-02    0.457E-02
DAV:  13    -0.155214991029E+04   -0.27127E-03   -0.61347E-04 14360   0.343E-02    0.238E-02
DAV:  14    -0.155214992404E+04   -0.13754E-04   -0.15273E-04 14296   0.201E-02    0.144E-02
DAV:  15    -0.155214991967E+04    0.43672E-05   -0.40975E-05  8384   0.107E-02
   3 F= -.15521499E+04 E0= -.15521718E+04  d E =-.559405E+02
       N       E                     dE             d eps       ncg     rms          rms(c)
DAV:   1    -0.155259937027E+04   -0.44945E+00   -0.28038E+01 11172   0.753E+00    0.130E+00
DAV:   2    -0.155256244509E+04    0.36925E-01   -0.45171E-01 16088   0.822E-01    0.757E-01
DAV:   3    -0.155255560625E+04    0.68388E-02   -0.13313E-01 18328   0.540E-01    0.639E-01
DAV:   4    -0.155253702785E+04    0.18578E-01   -0.67740E-02 17752   0.415E-01    0.351E-01
DAV:   5    -0.155253180948E+04    0.52184E-02   -0.33777E-02 15160   0.267E-01    0.131E-01
DAV:   6    -0.155253151482E+04    0.29466E-03   -0.75242E-03 14712   0.131E-01    0.791E-02
DAV:   7    -0.155253151845E+04   -0.36252E-05   -0.15427E-03 15912   0.620E-02    0.616E-02
DAV:   8    -0.155253145336E+04    0.65085E-04   -0.61109E-04 16384   0.356E-02    0.336E-02
DAV:   9    -0.155253148105E+04   -0.27688E-04   -0.25844E-04 14792   0.205E-02    0.195E-02
DAV:  10    -0.155253149162E+04   -0.10575E-04   -0.61782E-05 11512   0.126E-02    0.107E-02
DAV:  11    -0.155253149243E+04   -0.80343E-06   -0.17916E-05  6976   0.805E-03
   4 F= -.15525315E+04 E0= -.15525512E+04  d E =-.381573E+00
       N       E                     dE             d eps       ncg     rms          rms(c)
DAV:   1    -0.155259301636E+04   -0.61525E-01   -0.44329E+00 11172   0.285E+00    0.472E-01
DAV:   2    -0.155259942162E+04   -0.64053E-02   -0.12561E-01 18032   0.562E-01    0.446E-01
DAV:   3    -0.155258813495E+04    0.11287E-01   -0.51216E-02 18056   0.368E-01    0.235E-01
DAV:   4    -0.155258612517E+04    0.20098E-02   -0.99190E-03 16712   0.144E-01    0.153E-01
DAV:   5    -0.155258529834E+04    0.82684E-03   -0.44919E-03 15424   0.991E-02    0.831E-02
DAV:   6    -0.155258509830E+04    0.20004E-03   -0.18546E-03 15352   0.676E-02    0.513E-02
DAV:   7    -0.155258498003E+04    0.11827E-03   -0.57062E-04 15632   0.396E-02    0.276E-02
DAV:   8    -0.155258497750E+04    0.25304E-05   -0.14343E-04 14664   0.160E-02    0.161E-02
DAV:   9    -0.155258498122E+04   -0.37186E-05   -0.41058E-05  8928   0.102E-02
   5 F= -.15525850E+04 E0= -.15526050E+04  d E =-.534888E-01
       N       E                     dE             d eps       ncg     rms          rms(c)
DAV:   1    -0.155260615197E+04   -0.21174E-01   -0.23448E+00 11172   0.204E+00    0.241E-01
DAV:   2    -0.155261069539E+04   -0.45434E-02   -0.43833E-02 17352   0.314E-01    0.268E-01
DAV:   3    -0.155260677475E+04    0.39206E-02   -0.15054E-02 17872   0.201E-01    0.134E-01
DAV:   4    -0.155260643233E+04    0.34243E-03   -0.27512E-03 16328   0.738E-02    0.946E-02
DAV:   5    -0.155260622568E+04    0.20664E-03   -0.15221E-03 14824   0.564E-02    0.428E-02
DAV:   6    -0.155260622062E+04    0.50588E-05   -0.54621E-04 15832   0.379E-02    0.284E-02
DAV:   7    -0.155260618462E+04    0.36001E-04   -0.19094E-04 15576   0.223E-02    0.128E-02
DAV:   8    -0.155260617665E+04    0.79766E-05   -0.31087E-05  7416   0.894E-03
   6 F= -.15526062E+04 E0= -.15526258E+04  d E =-.211954E-01
       N       E                     dE             d eps       ncg     rms          rms(c)
DAV:   1    -0.155261525934E+04   -0.90747E-02   -0.55474E-01 11291   0.104E+00    0.209E-01
DAV:   2    -0.155261578601E+04   -0.52667E-03   -0.18070E-02 18128   0.228E-01    0.195E-01
DAV:   3    -0.155261354870E+04    0.22373E-02   -0.92883E-03 18064   0.157E-01    0.999E-02
DAV:   4    -0.155261312912E+04    0.41958E-03   -0.18952E-03 15904   0.619E-02    0.639E-02
DAV:   5    -0.155261291370E+04    0.21543E-03   -0.91201E-04 15120   0.466E-02    0.325E-02
DAV:   6    -0.155261285973E+04    0.53968E-04   -0.33036E-04 15448   0.297E-02    0.209E-02
DAV:   7    -0.155261283565E+04    0.24081E-04   -0.97488E-05 13464   0.165E-02    0.110E-02
DAV:   8    -0.155261283753E+04   -0.18873E-05   -0.21428E-05  6656   0.750E-03
   7 F= -.15526128E+04 E0= -.15526326E+04  d E =-.666089E-02
       N       E                     dE             d eps       ncg     rms          rms(c)
DAV:   1    -0.155261852142E+04   -0.56858E-02   -0.38797E-01 11270   0.847E-01    0.115E-01
DAV:   2    -0.155261908405E+04   -0.56262E-03   -0.62870E-03 17080   0.120E-01    0.114E-01
DAV:   3    -0.155261844528E+04    0.63876E-03   -0.24620E-03 17752   0.816E-02    0.616E-02
DAV:   4    -0.155261838414E+04    0.61140E-04   -0.60268E-04 15544   0.347E-02    0.375E-02
DAV:   5    -0.155261836763E+04    0.16513E-04   -0.32141E-04 14784   0.268E-02    0.164E-02
DAV:   6    -0.155261836795E+04   -0.31772E-06   -0.90710E-05 13584   0.166E-02
   8 F= -.15526184E+04 E0= -.15526380E+04  d E =-.553041E-02
       N       E                     dE             d eps       ncg     rms          rms(c)
DAV:   1    -0.155262146156E+04   -0.30939E-02   -0.27095E-01 11235   0.694E-01    0.956E-02
DAV:   2    -0.155262224307E+04   -0.78150E-03   -0.64602E-03 18024   0.136E-01    0.120E-01
DAV:   3    -0.155262130507E+04    0.93800E-03   -0.30321E-03 17832   0.907E-02    0.490E-02
DAV:   4    -0.155262123389E+04    0.71184E-04   -0.42846E-04 16040   0.286E-02    0.345E-02
DAV:   5    -0.155262118553E+04    0.48360E-04   -0.20671E-04 15288   0.217E-02    0.186E-02
DAV:   6    -0.155262116980E+04    0.15730E-04   -0.85971E-05 13568   0.158E-02    0.117E-02
DAV:   7    -0.155262116147E+04    0.83331E-05   -0.24712E-05  7192   0.959E-03
   9 F= -.15526212E+04 E0= -.15526407E+04  d E =-.279352E-02
       N       E                     dE             d eps       ncg     rms          rms(c)
DAV:   1    -0.155262250951E+04   -0.13397E-02   -0.12623E-01 11298   0.478E-01    0.594E-02
DAV:   2    -0.155262277430E+04   -0.26479E-03   -0.19788E-03 17056   0.703E-02    0.670E-02
DAV:   3    -0.155262252884E+04    0.24546E-03   -0.82671E-04 17472   0.477E-02    0.324E-02
DAV:   4    -0.155262252636E+04    0.24775E-05   -0.16875E-04 15096   0.182E-02    0.194E-02
DAV:   5    -0.155262253005E+04   -0.36888E-05   -0.77740E-05 12960   0.139E-02
  10 F= -.15526225E+04 E0= -.15526420E+04  d E =-.136858E-02
       N       E                     dE             d eps       ncg     rms          rms(c)
DAV:   1    -0.155262343050E+04   -0.90414E-03   -0.43866E-02 11326   0.288E-01    0.510E-02
DAV:   2    -0.155262347016E+04   -0.39660E-04   -0.11005E-03 18136   0.564E-02    0.511E-02
DAV:   3    -0.155262330833E+04    0.16183E-03   -0.56575E-04 17992   0.392E-02    0.249E-02
DAV:   4    -0.155262327416E+04    0.34167E-04   -0.10706E-04 14192   0.145E-02    0.158E-02
DAV:   5    -0.155262324914E+04    0.25024E-04   -0.47252E-05  9432   0.117E-02    0.741E-03
DAV:   6    -0.155262324248E+04    0.66605E-05   -0.13924E-05  6520   0.778E-03
  11 F= -.15526232E+04 E0= -.15526428E+04  d E =-.712428E-03
       N       E                     dE             d eps       ncg     rms          rms(c)
DAV:   1    -0.155262388906E+04   -0.63992E-03   -0.59563E-02 11284   0.324E-01    0.348E-02
DAV:   2    -0.155262403684E+04   -0.14779E-03   -0.91601E-04 17560   0.481E-02    0.456E-02
DAV:   3    -0.155262391511E+04    0.12174E-03   -0.37268E-04 17705   0.320E-02    0.202E-02
DAV:   4    -0.155262391520E+04   -0.90896E-07   -0.52132E-05 10304   0.108E-02    0.126E-02
DAV:   5    -0.155262391844E+04   -0.32434E-05   -0.23084E-05  7024   0.917E-03
  12 F= -.15526239E+04 E0= -.15526434E+04  d E =-.675965E-03
       N       E                     dE             d eps       ncg     rms          rms(c)
DAV:   1    -0.155262436173E+04   -0.44654E-03   -0.39361E-02 11312   0.265E-01    0.333E-02
DAV:   2    -0.155262442971E+04   -0.67977E-04   -0.73361E-04 18144   0.438E-02    0.394E-02
DAV:   3    -0.155262433211E+04    0.97602E-04   -0.31586E-04 17952   0.293E-02    0.178E-02
DAV:   4    -0.155262431784E+04    0.14266E-04   -0.38639E-05  8872   0.965E-03    0.117E-02
DAV:   5    -0.155262430611E+04    0.11733E-04   -0.20850E-05  6528   0.806E-03    0.560E-03
DAV:   6    -0.155262430258E+04    0.35317E-05   -0.74905E-06  6232   0.603E-03
  13 F= -.15526243E+04 E0= -.15526438E+04  d E =-.384137E-03
       N       E                     dE             d eps       ncg     rms          rms(c)
DAV:   1    -0.155262450706E+04   -0.20095E-03   -0.12732E-02 11326   0.153E-01    0.208E-02
DAV:   2    -0.155262452594E+04   -0.18879E-04   -0.14712E-04 15376   0.171E-02    0.163E-02
DAV:   3    -0.155262451904E+04    0.68956E-05   -0.36985E-05  9056   0.115E-02    0.109E-02
DAV:   4    -0.155262452601E+04   -0.69640E-05   -0.16348E-05  6272   0.697E-03    0.472E-03
DAV:   5    -0.155262453102E+04   -0.50152E-05   -0.66222E-06  6096   0.511E-03
  14 F= -.15526245E+04 E0= -.15526440E+04  d E =-.228445E-03
       N       E                     dE             d eps       ncg     rms          rms(c)
DAV:   1    -0.155262476635E+04   -0.24034E-03   -0.17320E-02 11312   0.175E-01    0.206E-02
DAV:   2    -0.155262479232E+04   -0.25971E-04   -0.27826E-04 18312   0.273E-02    0.250E-02
DAV:   3    -0.155262475286E+04    0.39460E-04   -0.11447E-04 14536   0.181E-02    0.113E-02
DAV:   4    -0.155262474629E+04    0.65700E-05   -0.17016E-05  6704   0.711E-03    0.734E-03
DAV:   5    -0.155262473989E+04    0.64035E-05   -0.90931E-06  6160   0.571E-03
  15 F= -.15526247E+04 E0= -.15526442E+04  d E =-.208867E-03
       N       E                     dE             d eps       ncg     rms          rms(c)
DAV:   1    -0.155262492017E+04   -0.17387E-03   -0.18715E-02 11312   0.181E-01    0.173E-02
DAV:   2    -0.155262494795E+04   -0.27782E-04   -0.20523E-04 16992   0.207E-02    0.184E-02
DAV:   3    -0.155262493247E+04    0.15482E-04   -0.44709E-05  9744   0.129E-02    0.108E-02
DAV:   4    -0.155262493508E+04   -0.26156E-05   -0.18038E-05  6240   0.670E-03    0.475E-03
DAV:   5    -0.155262493751E+04   -0.24288E-05   -0.71521E-06  6160   0.550E-03
  16 F= -.15526249E+04 E0= -.15526444E+04  d E =-.197622E-03
       N       E                     dE             d eps       ncg     rms          rms(c)
DAV:   1    -0.155262505540E+04   -0.12032E-03   -0.76555E-03 11326   0.117E-01    0.153E-02
DAV:   2    -0.155262505319E+04    0.22119E-05   -0.10661E-04 14584   0.174E-02    0.149E-02
DAV:   3    -0.155262503886E+04    0.14325E-04   -0.41776E-05  9552   0.123E-02    0.776E-03
DAV:   4    -0.155262503337E+04    0.54930E-05   -0.11209E-05  6056   0.567E-03    0.484E-03
DAV:   5    -0.155262502795E+04    0.54242E-05   -0.57701E-06  5984   0.449E-03
  17 F= -.15526250E+04 E0= -.15526445E+04  d E =-.904344E-04
       N       E                     dE             d eps       ncg     rms          rms(c)
DAV:   1    -0.155262511130E+04   -0.77926E-04   -0.55851E-03 11312   0.998E-02    0.112E-02
DAV:   2    -0.155262512096E+04   -0.96659E-05   -0.49197E-05 10504   0.105E-02    0.931E-03
DAV:   3    -0.155262511957E+04    0.13948E-05   -0.13596E-05  6744   0.708E-03    0.636E-03
DAV:   4    -0.155262512451E+04   -0.49460E-05   -0.72029E-06  5928   0.404E-03    0.218E-03
DAV:   5    -0.155262512640E+04   -0.18885E-05   -0.28466E-06  5896   0.312E-03
  18 F= -.15526251E+04 E0= -.15526445E+04  d E =-.984559E-04
       N       E                     dE             d eps       ncg     rms          rms(c)
DAV:   1    -0.155262522582E+04   -0.10130E-03   -0.88577E-03 11312   0.124E-01    0.121E-02
DAV:   2    -0.155262523039E+04   -0.45765E-05   -0.92735E-05 14120   0.139E-02    0.118E-02
DAV:   3    -0.155262522367E+04    0.67272E-05   -0.19283E-05  7320   0.906E-03    0.744E-03
DAV:   4    -0.155262522090E+04    0.27674E-05   -0.93082E-06  5928   0.477E-03    0.420E-03
DAV:   5    -0.155262521857E+04    0.23317E-05   -0.48837E-06  5904   0.430E-03
  19 F= -.15526252E+04 E0= -.15526446E+04  d E =-.921639E-04
       N       E                     dE             d eps       ncg     rms          rms(c)
DAV:   1    -0.155262528330E+04   -0.62405E-04   -0.56896E-03 11312   0.100E-01    0.962E-03
DAV:   2    -0.155262529196E+04   -0.86530E-05   -0.47097E-05 10384   0.104E-02    0.864E-03
DAV:   3    -0.155262529054E+04    0.14176E-05   -0.12797E-05  6544   0.669E-03    0.578E-03
DAV:   4    -0.155262529439E+04   -0.38514E-05   -0.65633E-06  5880   0.370E-03    0.180E-03
DAV:   5    -0.155262529566E+04   -0.12739E-05   -0.25578E-06  5880   0.289E-03
  20 F= -.15526253E+04 E0= -.15526447E+04  d E =-.770972E-04
       N       E                     dE             d eps       ncg     rms          rms(c)
DAV:   1    -0.155262535006E+04   -0.55668E-04   -0.30709E-03 11312   0.738E-02    0.872E-03
DAV:   2    -0.155262534475E+04    0.53106E-05   -0.22915E-05  7216   0.852E-03    0.662E-03
DAV:   3    -0.155262534265E+04    0.21012E-05   -0.97932E-06  6408   0.659E-03    0.457E-03
DAV:   4    -0.155262533934E+04    0.33079E-05   -0.48928E-06  5880   0.375E-03    0.249E-03
DAV:   5    -0.155262533725E+04    0.20914E-05   -0.28928E-06  5880   0.297E-03
  21 F= -.15526253E+04 E0= -.15526447E+04  d E =-.415825E-04
       N       E                     dE             d eps       ncg     rms          rms(c)
DAV:   1    -0.155262538364E+04   -0.44298E-04   -0.38013E-03 11312   0.814E-02    0.790E-03
DAV:   2    -0.155262538819E+04   -0.45570E-05   -0.25498E-05  8176   0.766E-03    0.606E-03
DAV:   3    -0.155262538898E+04   -0.79099E-06   -0.90803E-06  6032   0.508E-03    0.462E-03
DAV:   4    -0.155262539187E+04   -0.28866E-05   -0.58563E-06  5880   0.381E-03    0.138E-03
DAV:   5    -0.155262539273E+04   -0.86141E-06   -0.29177E-06  5880   0.298E-03
  22 F= -.15526254E+04 E0= -.15526448E+04  d E =-.554859E-04
       N       E                     dE             d eps       ncg     rms          rms(c)
DAV:   1    -0.155262544103E+04   -0.49157E-04   -0.38014E-03 11312   0.813E-02    0.796E-03
DAV:   2    -0.155262543884E+04    0.21853E-05   -0.27386E-05  7632   0.838E-03    0.615E-03
DAV:   3    -0.155262543797E+04    0.87545E-06   -0.99794E-06  6120   0.594E-03    0.460E-03
DAV:   4    -0.155262543571E+04    0.22597E-05   -0.55621E-06  5880   0.387E-03    0.239E-03
DAV:   5    -0.155262543442E+04    0.12823E-05   -0.32721E-06  5880   0.317E-03
  23 F= -.15526254E+04 E0= -.15526448E+04  d E =-.416925E-04
       N       E                     dE             d eps       ncg     rms          rms(c)
DAV:   1    -0.155262546055E+04   -0.24840E-04   -0.17203E-03 11312   0.549E-02    0.569E-03
DAV:   2    -0.155262546426E+04   -0.37150E-05   -0.12747E-05  5904   0.547E-03    0.417E-03
DAV:   3    -0.155262546518E+04   -0.92125E-06   -0.52017E-06  5880   0.387E-03    0.318E-03
DAV:   4    -0.155262546749E+04   -0.23080E-05   -0.31878E-06  5859   0.284E-03    0.131E-03
DAV:   5    -0.155262546853E+04   -0.10400E-05   -0.17839E-06  5859   0.230E-03
  24 F= -.15526255E+04 E0= -.15526449E+04  d E =-.341064E-04
       N       E                     dE             d eps       ncg     rms          rms(c)
DAV:   1    -0.155262550389E+04   -0.36401E-04   -0.25125E-03 11312   0.660E-02    0.630E-03
DAV:   2    -0.155262550238E+04    0.15121E-05   -0.16682E-05  7432   0.659E-03    0.486E-03
DAV:   3    -0.155262550193E+04    0.45116E-06   -0.65623E-06  6000   0.461E-03    0.369E-03
DAV:   4    -0.155262550032E+04    0.16067E-05   -0.38298E-06  5859   0.314E-03    0.179E-03
DAV:   5    -0.155262549955E+04    0.77303E-06   -0.22451E-06  5859   0.258E-03
  25 F= -.15526255E+04 E0= -.15526449E+04  d E =-.310182E-04
       N       E                     dE             d eps       ncg     rms          rms(c)
DAV:   1    -0.155262553073E+04   -0.30404E-04   -0.31000E-03 11298   0.733E-02    0.662E-03
DAV:   2    -0.155262553408E+04   -0.33501E-05   -0.20087E-05  7144   0.667E-03    0.497E-03
DAV:   3    -0.155262553512E+04   -0.10447E-05   -0.73497E-06  5889   0.426E-03    0.378E-03
DAV:   4    -0.155262553713E+04   -0.20090E-05   -0.46306E-06  5838   0.345E-03    0.105E-03
DAV:   5    -0.155262553767E+04   -0.53795E-06   -0.24106E-06  5831   0.260E-03
  26 F= -.15526255E+04 E0= -.15526449E+04  d E =-.381190E-04
       N       E                     dE             d eps       ncg     rms          rms(c)
DAV:   1    -0.155262555865E+04   -0.21524E-04   -0.97647E-04 11312   0.416E-02    0.504E-03
DAV:   2    -0.155262555516E+04    0.34910E-05   -0.85411E-06  5817   0.484E-03    0.344E-03
DAV:   3    -0.155262555438E+04    0.78104E-06   -0.37055E-06  5817   0.383E-03    0.263E-03
DAV:   4    -0.155262555264E+04    0.17406E-05   -0.20099E-06  5817   0.244E-03    0.147E-03
DAV:   5    -0.155262555142E+04    0.12205E-05   -0.12390E-06  5817   0.194E-03
  27 F= -.15526256E+04 E0= -.15526449E+04  d E =-.137526E-04
       N       E                     dE             d eps       ncg     rms          rms(c)
DAV:   1    -0.155262557107E+04   -0.18426E-04   -0.14579E-03 11298   0.503E-02    0.470E-03
DAV:   2    -0.155262557310E+04   -0.20291E-05   -0.93111E-06  6371   0.464E-03    0.356E-03
DAV:   3    -0.155262557364E+04   -0.54301E-06   -0.36325E-06  5868   0.303E-03    0.275E-03
DAV:   4    -0.155262557510E+04   -0.14651E-05   -0.23895E-06  5817   0.239E-03    0.779E-04
DAV:   5    -0.155262557544E+04   -0.33829E-06   -0.12244E-06  5810   0.186E-03
  28 F= -.15526256E+04 E0= -.15526450E+04  d E =-.240218E-04
       N       E                     dE             d eps       ncg     rms          rms(c)
DAV:   1    -0.155262560637E+04   -0.31271E-04   -0.36152E-03 11298   0.791E-02    0.699E-03
DAV:   2    -0.155262560559E+04    0.78810E-06   -0.21803E-05  7744   0.716E-03    0.523E-03
DAV:   3    -0.155262560541E+04    0.17215E-06   -0.79715E-06  6008   0.459E-03    0.401E-03
DAV:   4    -0.155262560399E+04    0.14294E-05   -0.47430E-06  5880   0.358E-03    0.158E-03
DAV:   5    -0.155262560364E+04    0.34935E-06   -0.26819E-06  5880   0.273E-03
  29 F= -.15526256E+04 E0= -.15526450E+04  d E =-.281935E-04
       N       E                     dE             d eps       ncg     rms          rms(c)
DAV:   1    -0.155262560969E+04   -0.57000E-05   -0.41772E-04 11298   0.279E-02    0.444E-03
DAV:   2    -0.155262561316E+04   -0.34793E-05   -0.49098E-06  5796   0.347E-03    0.260E-03
DAV:   3    -0.155262561443E+04   -0.12659E-05   -0.22750E-06  5796   0.286E-03    0.207E-03
DAV:   4    -0.155262561588E+04   -0.14507E-05   -0.12081E-06  5775   0.191E-03    0.111E-03
DAV:   5    -0.155262561714E+04   -0.12578E-05   -0.74720E-07  5775   0.144E-03
  30 F= -.15526256E+04 E0= -.15526450E+04  d E =-.135031E-04
       N       E                     dE             d eps       ncg     rms          rms(c)
DAV:   1    -0.155262563490E+04   -0.19020E-04   -0.10211E-03 11298   0.422E-02    0.431E-03
DAV:   2    -0.155262563296E+04    0.19403E-05   -0.66102E-06  5791   0.398E-03    0.300E-03
DAV:   3    -0.155262563241E+04    0.55494E-06   -0.26664E-06  5775   0.272E-03    0.230E-03
DAV:   4    -0.155262563128E+04    0.11243E-05   -0.14863E-06  5775   0.203E-03    0.119E-03
DAV:   5    -0.155262563057E+04    0.70836E-06   -0.91318E-07  5775   0.154E-03
  31 F= -.15526256E+04 E0= -.15526450E+04  d E =-.134343E-04
       N       E                     dE             d eps       ncg     rms          rms(c)
DAV:   1    -0.155262565020E+04   -0.18922E-04   -0.23744E-03 11284   0.640E-02    0.551E-03
DAV:   2    -0.155262565147E+04   -0.12614E-05   -0.13766E-05  7152   0.560E-03    0.417E-03
DAV:   3    -0.155262565195E+04   -0.48258E-06   -0.52170E-06  5889   0.346E-03    0.303E-03
DAV:   4    -0.155262565247E+04   -0.51753E-06   -0.33632E-06  5817   0.293E-03    0.721E-04
DAV:   5    -0.155262565260E+04   -0.13078E-06   -0.16674E-06  5817   0.207E-03
  32 F= -.15526257E+04 E0= -.15526450E+04  d E =-.220226E-04
       N       E                     dE             d eps       ncg     rms          rms(c)
DAV:   1    -0.155262568128E+04   -0.28817E-04   -0.53582E-03 11228   0.967E-02    0.939E-03
DAV:   2    -0.155262567845E+04    0.28292E-05   -0.46416E-05 10424   0.897E-03    0.683E-03
DAV:   3    -0.155262567699E+04    0.14675E-05   -0.88902E-06  6036   0.541E-03    0.526E-03
DAV:   4    -0.155262567409E+04    0.28926E-05   -0.40045E-06  5880   0.370E-03    0.281E-03
DAV:   5    -0.155262567199E+04    0.21019E-05   -0.24125E-06  5880   0.277E-03
  33 F= -.15526257E+04 E0= -.15526450E+04  d E =-.193948E-04
       N       E                     dE             d eps       ncg     rms          rms(c)
DAV:   1    -0.155262566417E+04    0.99215E-05   -0.56491E-04 11284   0.326E-02    0.498E-03
DAV:   2    -0.155262566764E+04   -0.34690E-05   -0.37837E-06  5775   0.355E-03    0.307E-03
DAV:   3    -0.155262566853E+04   -0.89108E-06   -0.13695E-06  5768   0.271E-03    0.244E-03
DAV:   4    -0.155262567020E+04   -0.16704E-05   -0.68623E-07  5775   0.161E-03    0.118E-03
DAV:   5    -0.155262567161E+04   -0.14040E-05   -0.38425E-07  5775   0.102E-03
  34 F= -.15526257E+04 E0= -.15526450E+04  d E =0.385112E-06
       N       E                     dE             d eps       ncg     rms          rms(c)
DAV:   1    -0.155262568529E+04   -0.15088E-04   -0.14671E-03 11284   0.504E-02    0.414E-03
DAV:   2    -0.155262568577E+04   -0.48049E-06   -0.70787E-06  5775   0.412E-03    0.312E-03
DAV:   3    -0.155262568590E+04   -0.13310E-06   -0.23534E-06  5768   0.230E-03    0.231E-03
DAV:   4    -0.155262568597E+04   -0.63596E-07   -0.14937E-06  5775   0.195E-03    0.669E-04
DAV:   5    -0.155262568602E+04   -0.52292E-07   -0.72073E-07  5775   0.133E-03
  35 F= -.15526257E+04 E0= -.15526451E+04  d E =-.144133E-04
       N       E                     dE             d eps       ncg     rms          rms(c)
DAV:   1    -0.155262572017E+04   -0.34201E-04   -0.14991E-02 11200   0.161E-01    0.142E-02
DAV:   2    -0.155262572358E+04   -0.34157E-05   -0.13276E-04 15512   0.137E-02    0.109E-02
DAV:   3    -0.155262572065E+04    0.29303E-05   -0.83185E-06  6450   0.576E-03    0.810E-03
DAV:   4    -0.155262571664E+04    0.40152E-05   -0.62444E-06  6032   0.511E-03    0.373E-03
DAV:   5    -0.155262571463E+04    0.20112E-05   -0.30993E-06  5880   0.359E-03
  36 F= -.15526257E+04 E0= -.15526451E+04  d E =-.286077E-04
       N       E                     dE             d eps       ncg     rms          rms(c)
DAV:   1    -0.155262569514E+04    0.21499E-04   -0.48123E-03 11228   0.917E-02    0.925E-03
DAV:   2    -0.155262569914E+04   -0.39973E-05   -0.24331E-05  7240   0.779E-03    0.654E-03
DAV:   3    -0.155262570029E+04   -0.11578E-05   -0.83068E-06  5831   0.480E-03    0.518E-03
DAV:   4    -0.155262570249E+04   -0.21984E-05   -0.50733E-06  5775   0.362E-03    0.172E-03
DAV:   5    -0.155262570363E+04   -0.11412E-05   -0.24939E-06  5775   0.240E-03
  37 F= -.15526257E+04 E0= -.15526451E+04  d E =0.109936E-04
       N       E                     dE             d eps       ncg     rms          rms(c)
DAV:   1    -0.155262571757E+04   -0.15075E-04   -0.24017E-03 11228   0.647E-02    0.541E-03
DAV:   2    -0.155262571784E+04   -0.27145E-06   -0.10055E-05  5799   0.503E-03    0.402E-03
DAV:   3    -0.155262571785E+04   -0.93141E-08   -0.29767E-06  5754   0.269E-03    0.300E-03
DAV:   4    -0.155262571761E+04    0.23654E-06   -0.19604E-06  5775   0.231E-03    0.755E-04
DAV:   5    -0.155262571764E+04   -0.32624E-07   -0.83243E-07  5775   0.145E-03
  38 F= -.15526257E+04 E0= -.15526451E+04  d E =-.140105E-04
       N       E                     dE             d eps       ncg     rms          rms(c)
DAV:   1    -0.155262573848E+04   -0.20865E-04   -0.11046E-02 11200   0.138E-01    0.116E-02
DAV:   2    -0.155262574370E+04   -0.52273E-05   -0.95674E-05 14720   0.115E-02    0.908E-03
DAV:   3    -0.155262574200E+04    0.17084E-05   -0.64568E-06  5970   0.467E-03    0.554E-03
DAV:   4    -0.155262574071E+04    0.12836E-05   -0.41691E-06  5880   0.439E-03    0.227E-03
DAV:   5    -0.155262574034E+04    0.37421E-06   -0.15062E-06  5838   0.266E-03
  39 F= -.15526257E+04 E0= -.15526451E+04  d E =-.226940E-04
       N       E                     dE             d eps       ncg     rms          rms(c)
DAV:   1    -0.155262575222E+04   -0.11509E-04   -0.13433E-02 11200   0.152E-01    0.126E-02
DAV:   2    -0.155262575961E+04   -0.73893E-05   -0.11559E-04 15440   0.127E-02    0.986E-03
DAV:   3    -0.155262575836E+04    0.12485E-05   -0.64814E-06  6224   0.499E-03    0.696E-03
DAV:   4    -0.155262575697E+04    0.13937E-05   -0.54274E-06  5936   0.468E-03    0.256E-03
DAV:   5    -0.155262575666E+04    0.30259E-06   -0.20242E-06  5838   0.306E-03
  40 F= -.15526258E+04 E0= -.15526451E+04  d E =-.163273E-04
       N       E                     dE             d eps       ncg     rms          rms(c)
DAV:   1    -0.155262575825E+04   -0.12832E-05   -0.10808E-02 11214   0.137E-01    0.112E-02
DAV:   2    -0.155262576433E+04   -0.60800E-05   -0.92860E-05 14496   0.115E-02    0.881E-03
DAV:   3    -0.155262576348E+04    0.85039E-06   -0.62220E-06  6065   0.476E-03    0.639E-03
DAV:   4    -0.155262576249E+04    0.98961E-06   -0.45429E-06  5873   0.420E-03    0.257E-03
DAV:   5    -0.155262576223E+04    0.26552E-06   -0.19111E-06  5838   0.296E-03
  41 F= -.15526258E+04 E0= -.15526451E+04  d E =-.556028E-05
