       N       E                     dE             d eps       ncg     rms          rms(c)
DAV:   1     0.244407359757E+04    0.24441E+04   -0.30262E+05 12056   0.144E+03
DAV:   2    -0.120152586300E+04   -0.36456E+04   -0.34936E+04 13924   0.321E+02
DAV:   3    -0.166885751999E+04   -0.46733E+03   -0.43845E+03 18488   0.821E+01
DAV:   4    -0.169379432230E+04   -0.24937E+02   -0.23742E+02 16944   0.179E+01
DAV:   5    -0.169482213722E+04   -0.10278E+01   -0.10116E+01 18736   0.395E+00    0.441E+01
DAV:   6    -0.165323924597E+04    0.41583E+02   -0.21407E+02 19704   0.227E+01    0.266E+01
DAV:   7    -0.163061713656E+04    0.22622E+02   -0.13001E+02 19560   0.196E+01    0.190E+01
DAV:   8    -0.161933937266E+04    0.11278E+02   -0.85454E+01 17496   0.123E+01    0.868E+00
DAV:   9    -0.161511058469E+04    0.42288E+01   -0.23090E+01 17280   0.822E+00    0.289E+00
DAV:  10    -0.161503391239E+04    0.76672E-01   -0.52235E+00 17288   0.357E+00    0.169E+00
DAV:  11    -0.161500202573E+04    0.31887E-01   -0.97222E-01 15384   0.148E+00    0.115E+00
DAV:  12    -0.161496790551E+04    0.34120E-01   -0.22424E-01 15472   0.728E-01    0.567E-01
DAV:  13    -0.161495769990E+04    0.10206E-01   -0.66697E-02 15976   0.473E-01    0.299E-01
DAV:  14    -0.161495484995E+04    0.28500E-02   -0.22077E-02 16864   0.250E-01    0.127E-01
DAV:  15    -0.161495478573E+04    0.64218E-04   -0.53306E-03 15424   0.109E-01    0.626E-02
DAV:  16    -0.161495482661E+04   -0.40879E-04   -0.11721E-03 16896   0.526E-02    0.405E-02
DAV:  17    -0.161495481062E+04    0.15987E-04   -0.39391E-04 16560   0.342E-02    0.223E-02
DAV:  18    -0.161495480714E+04    0.34839E-05   -0.13604E-04 14776   0.177E-02    0.109E-02
DAV:  19    -0.161495480322E+04    0.39213E-05   -0.29965E-05  8128   0.884E-03
   1 F= -.16149548E+04 E0= -.16149631E+04  d E =-.161495E+04
       N       E                     dE             d eps       ncg     rms          rms(c)
DAV:   1    -0.161679689828E+04   -0.18421E+01   -0.68253E+02 12040   0.378E+01    0.123E+01
DAV:   2    -0.161120667505E+04    0.55902E+01   -0.27631E+01 17072   0.814E+00    0.705E+00
DAV:   3    -0.160887258614E+04    0.23341E+01   -0.16136E+01 18752   0.654E+00    0.494E+00
DAV:   4    -0.160764917631E+04    0.12234E+01   -0.49408E+00 18168   0.372E+00    0.260E+00
DAV:   5    -0.160732155763E+04    0.32762E+00   -0.25937E+00 15992   0.242E+00    0.816E-01
DAV:   6    -0.160731915225E+04    0.24054E-02   -0.40616E-01 15776   0.106E+00    0.594E-01
DAV:   7    -0.160731435260E+04    0.47997E-02   -0.80252E-02 15056   0.451E-01    0.403E-01
DAV:   8    -0.160731456407E+04   -0.21147E-03   -0.28900E-02 16600   0.215E-01    0.207E-01
DAV:   9    -0.160731651914E+04   -0.19551E-02   -0.13446E-02 16560   0.160E-01    0.151E-01
DAV:  10    -0.160731562958E+04    0.88956E-03   -0.35623E-03 16344   0.111E-01    0.902E-02
DAV:  11    -0.160731531276E+04    0.31682E-03   -0.22059E-03 17472   0.579E-02    0.334E-02
DAV:  12    -0.160731535286E+04   -0.40101E-04   -0.40019E-04 17200   0.272E-02    0.231E-02
DAV:  13    -0.160731535813E+04   -0.52699E-05   -0.95415E-05 14848   0.168E-02
   2 F= -.16073154E+04 E0= -.16073115E+04  d E =0.763945E+01
       N       E                     dE             d eps       ncg     rms          rms(c)
DAV:   1    -0.162234746363E+04   -0.15032E+02   -0.25672E+02 12040   0.261E+01    0.886E+00
DAV:   2    -0.161884142794E+04    0.35060E+01   -0.75775E+00 16120   0.461E+00    0.445E+00
DAV:   3    -0.161821370598E+04    0.62772E+00   -0.46414E+00 16840   0.362E+00    0.331E+00
DAV:   4    -0.161754770320E+04    0.66600E+00   -0.21150E+00 16600   0.268E+00    0.124E+00
DAV:   5    -0.161748924300E+04    0.58460E-01   -0.83066E-01 15240   0.144E+00    0.466E-01
DAV:   6    -0.161748854007E+04    0.70293E-03   -0.12679E-01 14904   0.629E-01    0.338E-01
DAV:   7    -0.161748821027E+04    0.32980E-03   -0.22480E-02 15128   0.233E-01    0.227E-01
DAV:   8    -0.161749005608E+04   -0.18458E-02   -0.13195E-02 16400   0.140E-01    0.102E-01
DAV:   9    -0.161749075392E+04   -0.69785E-03   -0.28678E-03 14960   0.862E-02    0.818E-02
DAV:  10    -0.161749056417E+04    0.18975E-03   -0.10804E-03 16016   0.531E-02    0.385E-02
DAV:  11    -0.161749062952E+04   -0.65348E-04   -0.76927E-04 17504   0.370E-02    0.291E-02
DAV:  12    -0.161749069666E+04   -0.67139E-04   -0.11874E-04 14456   0.154E-02    0.158E-02
DAV:  13    -0.161749069346E+04    0.32043E-05   -0.30857E-05  8592   0.940E-03
   3 F= -.16174907E+04 E0= -.16174986E+04  d E =-.101753E+02
       N       E                     dE             d eps       ncg     rms          rms(c)
DAV:   1    -0.161760467683E+04   -0.11398E+00   -0.18026E+01 12040   0.539E+00    0.648E-01
DAV:   2    -0.161762714646E+04   -0.22470E-01   -0.30408E-01 16976   0.101E+00    0.574E-01
DAV:   3    -0.161760494258E+04    0.22204E-01   -0.99151E-02 17736   0.553E-01    0.333E-01
DAV:   4    -0.161760262149E+04    0.23211E-02   -0.15122E-02 17224   0.188E-01    0.193E-01
DAV:   5    -0.161760168114E+04    0.94035E-03   -0.80301E-03 16048   0.151E-01    0.705E-02
DAV:   6    -0.161760148904E+04    0.19209E-03   -0.22186E-03 15768   0.837E-02    0.437E-02
DAV:   7    -0.161760143364E+04    0.55403E-04   -0.42234E-04 16128   0.317E-02    0.264E-02
DAV:   8    -0.161760142201E+04    0.11633E-04   -0.10542E-04 14392   0.147E-02    0.161E-02
DAV:   9    -0.161760142038E+04    0.16320E-05   -0.53586E-05 12640   0.113E-02
   4 F= -.16176014E+04 E0= -.16176096E+04  d E =-.110727E+00
       N       E                     dE             d eps       ncg     rms          rms(c)
DAV:   1    -0.161763033949E+04   -0.28917E-01   -0.54899E+00 12040   0.298E+00    0.336E-01
DAV:   2    -0.161763686942E+04   -0.65299E-02   -0.76650E-02 16104   0.550E-01    0.317E-01
DAV:   3    -0.161762963992E+04    0.72295E-02   -0.25615E-02 17432   0.295E-01    0.177E-01
DAV:   4    -0.161762884953E+04    0.79039E-03   -0.48588E-03 15472   0.108E-01    0.713E-02
DAV:   5    -0.161762874722E+04    0.10231E-03   -0.18129E-03 15616   0.785E-02    0.321E-02
DAV:   6    -0.161762870425E+04    0.42966E-04   -0.44122E-04 15488   0.367E-02    0.184E-02
DAV:   7    -0.161762869003E+04    0.14221E-04   -0.88040E-05 13816   0.147E-02    0.109E-02
DAV:   8    -0.161762868612E+04    0.39056E-05   -0.18998E-05  7904   0.781E-03
   5 F= -.16176287E+04 E0= -.16176366E+04  d E =-.272657E-01
       N       E                     dE             d eps       ncg     rms          rms(c)
DAV:   1    -0.161763389009E+04   -0.52001E-02   -0.42746E-01 12148   0.997E-01    0.312E-01
DAV:   2    -0.161763005608E+04    0.38340E-02   -0.13404E-02 17008   0.210E-01    0.183E-01
DAV:   3    -0.161762841978E+04    0.16363E-02   -0.88686E-03 18320   0.161E-01    0.126E-01
DAV:   4    -0.161762737652E+04    0.10433E-02   -0.28580E-03 16344   0.906E-02    0.440E-02
DAV:   5    -0.161762721621E+04    0.16031E-03   -0.99490E-04 15384   0.521E-02    0.178E-02
DAV:   6    -0.161762719825E+04    0.17962E-04   -0.19540E-04 15040   0.254E-02    0.120E-02
DAV:   7    -0.161762719578E+04    0.24674E-05   -0.28168E-05  7976   0.902E-03
   6 F= -.16176272E+04 E0= -.16176355E+04  d E =0.149035E-02
       N       E                     dE             d eps       ncg     rms          rms(c)
DAV:   1    -0.161763781491E+04   -0.10617E-01   -0.48256E-01 12100   0.951E-01    0.204E-01
DAV:   2    -0.161763647950E+04    0.13354E-02   -0.60258E-03 14976   0.130E-01    0.110E-01
DAV:   3    -0.161763623973E+04    0.23977E-03   -0.25209E-03 17754   0.838E-02    0.811E-02
DAV:   4    -0.161763594746E+04    0.29227E-03   -0.12119E-03 16928   0.593E-02    0.312E-02
DAV:   5    -0.161763596246E+04   -0.15002E-04   -0.41382E-04 14592   0.310E-02    0.126E-02
DAV:   6    -0.161763596346E+04   -0.99887E-06   -0.55167E-05 12208   0.132E-02
   7 F= -.16176360E+04 E0= -.16176440E+04  d E =-.876768E-02
       N       E                     dE             d eps       ncg     rms          rms(c)
DAV:   1    -0.161763752715E+04   -0.15647E-02   -0.18774E-01 12112   0.551E-01    0.697E-02
DAV:   2    -0.161763777272E+04   -0.24557E-03   -0.30626E-03 16400   0.111E-01    0.670E-02
DAV:   3    -0.161763741501E+04    0.35771E-03   -0.11555E-03 16856   0.631E-02    0.348E-02
DAV:   4    -0.161763737308E+04    0.41931E-04   -0.19436E-04 15912   0.215E-02    0.151E-02
DAV:   5    -0.161763736062E+04    0.12456E-04   -0.67956E-05 13680   0.158E-02    0.612E-03
DAV:   6    -0.161763735888E+04    0.17453E-05   -0.15821E-05  7536   0.778E-03
   8 F= -.16176374E+04 E0= -.16176454E+04  d E =-.139542E-02
       N       E                     dE             d eps       ncg     rms          rms(c)
DAV:   1    -0.161763779467E+04   -0.43405E-03   -0.79049E-02 12196   0.367E-01    0.581E-02
DAV:   2    -0.161763779030E+04    0.43735E-05   -0.91431E-04 15544   0.540E-02    0.378E-02
DAV:   3    -0.161763775059E+04    0.39707E-04   -0.32700E-04 18252   0.311E-02    0.273E-02
DAV:   4    -0.161763774522E+04    0.53714E-05   -0.10343E-04 14640   0.161E-02    0.102E-02
DAV:   5    -0.161763775508E+04   -0.98617E-05   -0.28742E-05  8752   0.101E-02
   9 F= -.16176378E+04 E0= -.16176458E+04  d E =-.396205E-03
       N       E                     dE             d eps       ncg     rms          rms(c)
DAV:   1    -0.161763820889E+04   -0.46367E-03   -0.86603E-03 12208   0.144E-01    0.476E-02
DAV:   2    -0.161763807876E+04    0.13013E-03   -0.28227E-04 16760   0.292E-02    0.263E-02
DAV:   3    -0.161763803870E+04    0.40065E-04   -0.17632E-04 17120   0.228E-02    0.188E-02
DAV:   4    -0.161763799620E+04    0.42496E-04   -0.56255E-05 11688   0.139E-02    0.684E-03
DAV:   5    -0.161763798186E+04    0.14344E-04   -0.20335E-05  6656   0.825E-03    0.199E-03
DAV:   6    -0.161763798074E+04    0.11215E-05   -0.51949E-06  6464   0.507E-03
  10 F= -.16176380E+04 E0= -.16176461E+04  d E =-.225651E-03
       N       E                     dE             d eps       ncg     rms          rms(c)
DAV:   1    -0.161763817486E+04   -0.19300E-03   -0.22795E-02 12184   0.192E-01    0.211E-02
DAV:   2    -0.161763819938E+04   -0.24515E-04   -0.25700E-04 16608   0.285E-02    0.183E-02
DAV:   3    -0.161763818260E+04    0.16776E-04   -0.71227E-05 12988   0.156E-02    0.118E-02
DAV:   4    -0.161763818521E+04   -0.26123E-05   -0.19843E-05  7232   0.725E-03    0.263E-03
DAV:   5    -0.161763818633E+04   -0.11146E-05   -0.51334E-06  6504   0.506E-03
  11 F= -.16176382E+04 E0= -.16176463E+04  d E =-.205590E-03
       N       E                     dE             d eps       ncg     rms          rms(c)
DAV:   1    -0.161763831345E+04   -0.12824E-03   -0.17491E-02 12196   0.169E-01    0.206E-02
DAV:   2    -0.161763831744E+04   -0.39930E-05   -0.22600E-04 17440   0.262E-02    0.176E-02
DAV:   3    -0.161763829747E+04    0.19969E-04   -0.73259E-05 13240   0.158E-02    0.108E-02
DAV:   4    -0.161763828749E+04    0.99860E-05   -0.15445E-05  7080   0.663E-03    0.392E-03
DAV:   5    -0.161763828445E+04    0.30370E-05   -0.53934E-06  6464   0.493E-03
  12 F= -.16176383E+04 E0= -.16176464E+04  d E =-.981255E-04
       N       E                     dE             d eps       ncg     rms          rms(c)
DAV:   1    -0.161763830092E+04   -0.13434E-04   -0.77387E-04 12208   0.436E-02    0.145E-02
DAV:   2    -0.161763830448E+04   -0.35624E-05   -0.15742E-05  6440   0.730E-03    0.729E-03
DAV:   3    -0.161763830820E+04   -0.37126E-05   -0.77328E-06  6416   0.654E-03    0.503E-03
DAV:   4    -0.161763831324E+04   -0.50464E-05   -0.44967E-06  6312   0.476E-03    0.151E-03
DAV:   5    -0.161763831595E+04   -0.27102E-05   -0.20772E-06  6272   0.263E-03
  13 F= -.16176383E+04 E0= -.16176464E+04  d E =-.315027E-04
       N       E                     dE             d eps       ncg     rms          rms(c)
DAV:   1    -0.161763838497E+04   -0.71729E-04   -0.63980E-03 12190   0.102E-01    0.118E-02
DAV:   2    -0.161763838259E+04    0.23798E-05   -0.58445E-05 12488   0.127E-02    0.907E-03
DAV:   3    -0.161763837836E+04    0.42356E-05   -0.14877E-05  8140   0.789E-03    0.637E-03
DAV:   4    -0.161763837363E+04    0.47280E-05   -0.73582E-06  6296   0.440E-03    0.201E-03
DAV:   5    -0.161763837259E+04    0.10409E-05   -0.26430E-06  6288   0.341E-03
  14 F= -.16176384E+04 E0= -.16176464E+04  d E =-.566345E-04
       N       E                     dE             d eps       ncg     rms          rms(c)
DAV:   1    -0.161763841752E+04   -0.43889E-04   -0.65212E-03 12196   0.103E-01    0.104E-02
DAV:   2    -0.161763842314E+04   -0.56255E-05   -0.52404E-05 11864   0.107E-02    0.797E-03
DAV:   3    -0.161763842313E+04    0.11919E-07   -0.10039E-05  6826   0.579E-03    0.601E-03
DAV:   4    -0.161763842544E+04   -0.23037E-05   -0.62044E-06  6296   0.389E-03    0.103E-03
DAV:   5    -0.161763842549E+04   -0.52560E-07   -0.18283E-06  6288   0.258E-03
  15 F= -.16176384E+04 E0= -.16176465E+04  d E =-.528996E-04
       N       E                     dE             d eps       ncg     rms          rms(c)
DAV:   1    -0.161763844595E+04   -0.20510E-04   -0.69012E-04 12208   0.359E-02    0.811E-03
DAV:   2    -0.161763843676E+04    0.91858E-05   -0.85320E-06  6272   0.544E-03    0.447E-03
DAV:   3    -0.161763843394E+04    0.28249E-05   -0.39431E-06  6272   0.458E-03    0.311E-03
DAV:   4    -0.161763842953E+04    0.44082E-05   -0.20538E-06  6272   0.297E-03    0.103E-03
DAV:   5    -0.161763842807E+04    0.14579E-05   -0.10447E-06  6272   0.186E-03
  16 F= -.16176384E+04 E0= -.16176465E+04  d E =-.258089E-05
       N       E                     dE             d eps       ncg     rms          rms(c)
DAV:   1    -0.161763845019E+04   -0.20658E-04   -0.19898E-03 12196   0.572E-02    0.722E-03
DAV:   2    -0.161763845371E+04   -0.35271E-05   -0.12463E-05  6400   0.567E-03    0.467E-03
DAV:   3    -0.161763845649E+04   -0.27735E-05   -0.49155E-06  6346   0.336E-03    0.198E-03
DAV:   4    -0.161763845822E+04   -0.17332E-05   -0.24217E-06  6272   0.266E-03    0.965E-04
DAV:   5    -0.161763845864E+04   -0.41972E-06   -0.12647E-06  6266   0.205E-03
  17 F= -.16176385E+04 E0= -.16176465E+04  d E =-.305699E-04
       N       E                     dE             d eps       ncg     rms          rms(c)
DAV:   1    -0.161763848257E+04   -0.24354E-04   -0.24943E-03 12184   0.634E-02    0.650E-03
DAV:   2    -0.161763848166E+04    0.91277E-06   -0.15171E-05  8184   0.638E-03    0.471E-03
DAV:   3    -0.161763848112E+04    0.54359E-06   -0.53717E-06  6338   0.388E-03    0.322E-03
DAV:   4    -0.161763847960E+04    0.15191E-05   -0.34157E-06  6272   0.321E-03    0.554E-04
DAV:   5    -0.161763847984E+04   -0.23914E-06   -0.16498E-06  6266   0.232E-03
  18 F= -.16176385E+04 E0= -.16176466E+04  d E =-.211982E-04
       N       E                     dE             d eps       ncg     rms          rms(c)
DAV:   1    -0.161763848968E+04   -0.10079E-04   -0.11910E-03 12196   0.444E-02    0.608E-03
DAV:   2    -0.161763849325E+04   -0.35757E-05   -0.90288E-06  6272   0.486E-03    0.380E-03
DAV:   3    -0.161763849531E+04   -0.20614E-05   -0.37258E-06  6266   0.321E-03    0.228E-03
DAV:   4    -0.161763849737E+04   -0.20586E-05   -0.20146E-06  6272   0.252E-03    0.869E-04
DAV:   5    -0.161763849810E+04   -0.73205E-06   -0.11125E-06  6272   0.183E-03
  19 F= -.16176385E+04 E0= -.16176466E+04  d E =-.182678E-04
       N       E                     dE             d eps       ncg     rms          rms(c)
DAV:   1    -0.161763851098E+04   -0.13610E-04   -0.41715E-04 12196   0.266E-02    0.450E-03
DAV:   2    -0.161763850730E+04    0.36869E-05   -0.39172E-06  6272   0.332E-03    0.266E-03
DAV:   3    -0.161763850600E+04    0.12969E-05   -0.17032E-06  6266   0.248E-03    0.185E-03
DAV:   4    -0.161763850400E+04    0.19946E-05   -0.92657E-07  6272   0.179E-03    0.666E-04
DAV:   5    -0.161763850336E+04    0.64884E-06   -0.51420E-07  6272   0.127E-03
  20 F= -.16176385E+04 E0= -.16176466E+04  d E =-.525013E-05
       N       E                     dE             d eps       ncg     rms          rms(c)
DAV:   1    -0.161763851598E+04   -0.11972E-04   -0.14084E-03 12184   0.476E-02    0.471E-03
DAV:   2    -0.161763851681E+04   -0.83526E-06   -0.81001E-06  6392   0.459E-03    0.346E-03
DAV:   3    -0.161763851727E+04   -0.46279E-06   -0.31993E-06  6362   0.272E-03    0.110E-03
DAV:   4    -0.161763851761E+04   -0.33723E-06   -0.15944E-06  6272   0.222E-03    0.555E-04
DAV:   5    -0.161763851760E+04    0.80308E-08   -0.85876E-07  6272   0.159E-03
  21 F= -.16176385E+04 E0= -.16176466E+04  d E =-.142480E-04
       N       E                     dE             d eps       ncg     rms          rms(c)
DAV:   1    -0.161763854377E+04   -0.26155E-04   -0.75071E-03 12172   0.110E-01    0.113E-02
DAV:   2    -0.161763854270E+04    0.10712E-05   -0.61972E-05 12960   0.107E-02    0.840E-03
DAV:   3    -0.161763854026E+04    0.24343E-05   -0.85942E-06  6890   0.526E-03    0.569E-03
DAV:   4    -0.161763853619E+04    0.40744E-05   -0.45265E-06  6320   0.411E-03    0.115E-03
DAV:   5    -0.161763853590E+04    0.28217E-06   -0.15741E-06  6314   0.264E-03
  22 F= -.16176385E+04 E0= -.16176466E+04  d E =-.183014E-04
       N       E                     dE             d eps       ncg     rms          rms(c)
DAV:   1    -0.161763852404E+04    0.12142E-04   -0.18934E-03 12172   0.561E-02    0.742E-03
DAV:   2    -0.161763852761E+04   -0.35632E-05   -0.10409E-05  6280   0.561E-03    0.466E-03
DAV:   3    -0.161763852923E+04   -0.16216E-05   -0.33355E-06  6266   0.348E-03    0.315E-03
DAV:   4    -0.161763853175E+04   -0.25207E-05   -0.18511E-06  6272   0.267E-03    0.976E-04
DAV:   5    -0.161763853256E+04   -0.80817E-06   -0.85180E-07  6272   0.175E-03
  23 F= -.16176385E+04 E0= -.16176466E+04  d E =0.334618E-05
       N       E                     dE             d eps       ncg     rms          rms(c)
DAV:   1    -0.161763854467E+04   -0.12924E-04   -0.18315E-03 12172   0.544E-02    0.504E-03
DAV:   2    -0.161763854479E+04   -0.11257E-06   -0.84852E-06  6272   0.479E-03    0.370E-03
DAV:   3    -0.161763854441E+04    0.37795E-06   -0.26838E-06  6260   0.246E-03    0.140E-03
DAV:   4    -0.161763854432E+04    0.88782E-07   -0.12854E-06  6272   0.197E-03    0.607E-04
DAV:   5    -0.161763854438E+04   -0.59559E-07   -0.59993E-07  6272   0.134E-03
  24 F= -.16176385E+04 E0= -.16176466E+04  d E =-.118214E-04
       N       E                     dE             d eps       ncg     rms          rms(c)
DAV:   1    -0.161763856380E+04   -0.19477E-04   -0.11474E-02 12148   0.136E-01    0.130E-02
DAV:   2    -0.161763856876E+04   -0.49676E-05   -0.93064E-05 15216   0.127E-02    0.100E-02
DAV:   3    -0.161763856578E+04    0.29862E-05   -0.11215E-05  6732   0.538E-03    0.329E-03
DAV:   4    -0.161763856534E+04    0.43878E-06   -0.37653E-06  6368   0.424E-03    0.178E-03
DAV:   5    -0.161763856531E+04    0.29145E-07   -0.11713E-06  6314   0.253E-03
  25 F= -.16176386E+04 E0= -.16176466E+04  d E =-.209307E-04
       N       E                     dE             d eps       ncg     rms          rms(c)
DAV:   1    -0.161763857061E+04   -0.52682E-05   -0.27218E-03 12172   0.662E-02    0.624E-03
DAV:   2    -0.161763857147E+04   -0.86383E-06   -0.15457E-05  6448   0.621E-03    0.462E-03
DAV:   3    -0.161763857143E+04    0.44864E-07   -0.58277E-06  6338   0.351E-03    0.126E-03
DAV:   4    -0.161763857166E+04   -0.23191E-06   -0.27903E-06  6272   0.282E-03    0.719E-04
DAV:   5    -0.161763857176E+04   -0.10430E-06   -0.15184E-06  6272   0.213E-03
  26 F= -.16176386E+04 E0= -.16176466E+04  d E =-.645251E-05
