       N       E                     dE             d eps       ncg     rms          rms(c)
DAV:   1     0.244144362111E+04    0.24414E+04   -0.30218E+05 12040   0.144E+03
DAV:   2    -0.120049122738E+04   -0.36419E+04   -0.34890E+04 13916   0.321E+02
DAV:   3    -0.166688285200E+04   -0.46639E+03   -0.43719E+03 18520   0.821E+01
DAV:   4    -0.169130147795E+04   -0.24419E+02   -0.23317E+02 16792   0.179E+01
DAV:   5    -0.169233436361E+04   -0.10329E+01   -0.10169E+01 18776   0.399E+00    0.429E+01
DAV:   6    -0.164172248118E+04    0.50612E+02   -0.86815E+01 17768   0.121E+01    0.223E+01
DAV:   7    -0.162683789978E+04    0.14885E+02   -0.63968E+01 17064   0.121E+01    0.120E+01
DAV:   8    -0.162000169313E+04    0.68362E+01   -0.32198E+01 17816   0.108E+01    0.492E+00
DAV:   9    -0.161880390121E+04    0.11978E+01   -0.10128E+01 17776   0.527E+00    0.183E+00
DAV:  10    -0.161882247936E+04   -0.18578E-01   -0.16927E+00 16000   0.190E+00    0.129E+00
DAV:  11    -0.161879503485E+04    0.27445E-01   -0.31136E-01 16368   0.757E-01    0.667E-01
DAV:  12    -0.161878511979E+04    0.99151E-02   -0.75798E-02 15944   0.449E-01    0.362E-01
DAV:  13    -0.161878077905E+04    0.43407E-02   -0.20654E-02 17832   0.246E-01    0.176E-01
DAV:  14    -0.161877981037E+04    0.96869E-03   -0.77751E-03 15408   0.133E-01    0.588E-02
DAV:  15    -0.161877987615E+04   -0.65784E-04   -0.18159E-03 15808   0.618E-02    0.336E-02
DAV:  16    -0.161877986442E+04    0.11734E-04   -0.31236E-04 16544   0.323E-02    0.206E-02
DAV:  17    -0.161877984307E+04    0.21345E-04   -0.91519E-05 14736   0.173E-02    0.102E-02
DAV:  18    -0.161877983173E+04    0.11344E-04   -0.30705E-05  8368   0.843E-03    0.522E-03
DAV:  19    -0.161877982533E+04    0.63983E-05   -0.11463E-05  7584   0.581E-03
   1 F= -.16187798E+04 E0= -.16187808E+04  d E =-.161878E+04
       N       E                     dE             d eps       ncg     rms          rms(c)
DAV:   1    -0.162095316926E+04   -0.21733E+01   -0.75591E+02 12040   0.390E+01    0.125E+01
DAV:   2    -0.161377535243E+04    0.71778E+01   -0.26739E+01 17464   0.640E+00    0.577E+00
DAV:   3    -0.161247494318E+04    0.13004E+01   -0.77560E+00 17688   0.379E+00    0.380E+00
DAV:   4    -0.161188168289E+04    0.59326E+00   -0.30904E+00 18656   0.313E+00    0.226E+00
DAV:   5    -0.161159510500E+04    0.28658E+00   -0.17797E+00 16896   0.214E+00    0.740E-01
DAV:   6    -0.161159399399E+04    0.11110E-02   -0.27307E-01 14936   0.809E-01    0.497E-01
DAV:   7    -0.161159423055E+04   -0.23655E-03   -0.55575E-02 16584   0.301E-01    0.283E-01
DAV:   8    -0.161159643187E+04   -0.22013E-02   -0.21589E-02 17312   0.203E-01    0.189E-01
DAV:   9    -0.161159585663E+04    0.57524E-03   -0.58715E-03 15744   0.133E-01    0.107E-01
DAV:  10    -0.161159545142E+04    0.40521E-03   -0.31677E-03 17448   0.717E-02    0.386E-02
DAV:  11    -0.161159549001E+04   -0.38589E-04   -0.55604E-04 16720   0.358E-02    0.280E-02
DAV:  12    -0.161159549455E+04   -0.45341E-05   -0.16916E-04 15488   0.225E-02    0.137E-02
DAV:  13    -0.161159550236E+04   -0.78099E-05   -0.54239E-05 11208   0.966E-03
   2 F= -.16115955E+04 E0= -.16115952E+04  d E =0.718432E+01
       N       E                     dE             d eps       ncg     rms          rms(c)
DAV:   1    -0.162631473292E+04   -0.14719E+02   -0.25593E+02 12040   0.260E+01    0.901E+00
DAV:   2    -0.162238334290E+04    0.39314E+01   -0.74740E+00 13592   0.393E+00    0.401E+00
DAV:   3    -0.162155398114E+04    0.82936E+00   -0.18434E+00 13984   0.219E+00    0.188E+00
DAV:   4    -0.162139036113E+04    0.16362E+00   -0.77671E-01 15600   0.180E+00    0.982E-01
DAV:   5    -0.162132379281E+04    0.66568E-01   -0.37853E-01 15568   0.116E+00    0.240E-01
DAV:   6    -0.162132990185E+04   -0.61090E-02   -0.70362E-02 15312   0.390E-01    0.204E-01
DAV:   7    -0.162133154024E+04   -0.16384E-02   -0.89134E-03 14576   0.142E-01    0.118E-01
DAV:   8    -0.162133241948E+04   -0.87924E-03   -0.22878E-03 15000   0.775E-02    0.681E-02
DAV:   9    -0.162133298559E+04   -0.56611E-03   -0.14700E-03 15848   0.491E-02    0.314E-02
DAV:  10    -0.162133309550E+04   -0.10991E-03   -0.35037E-04 15200   0.289E-02    0.152E-02
DAV:  11    -0.162133311326E+04   -0.17751E-04   -0.76132E-05 13952   0.146E-02    0.955E-03
DAV:  12    -0.162133311035E+04    0.29022E-05   -0.20067E-05  7816   0.842E-03
   3 F= -.16213331E+04 E0= -.16213408E+04  d E =-.973761E+01
       N       E                     dE             d eps       ncg     rms          rms(c)
DAV:   1    -0.162138074096E+04   -0.47628E-01   -0.87809E+00 12040   0.385E+00    0.565E-01
DAV:   2    -0.162138436893E+04   -0.36280E-02   -0.16272E-01 17848   0.530E-01    0.342E-01
DAV:   3    -0.162138215102E+04    0.22179E-02   -0.26587E-02 19160   0.274E-01    0.253E-01
DAV:   4    -0.162138013859E+04    0.20124E-02   -0.82837E-03 18648   0.160E-01    0.134E-01
DAV:   5    -0.162137954747E+04    0.59112E-03   -0.42986E-03 16176   0.989E-02    0.411E-02
DAV:   6    -0.162137953427E+04    0.13204E-04   -0.76019E-04 15216   0.437E-02    0.269E-02
DAV:   7    -0.162137953339E+04    0.87698E-06   -0.13715E-04 14752   0.184E-02    0.179E-02
DAV:   8    -0.162137953348E+04   -0.92329E-07   -0.52295E-05 12912   0.115E-02
   4 F= -.16213795E+04 E0= -.16213871E+04  d E =-.464231E-01
       N       E                     dE             d eps       ncg     rms          rms(c)
DAV:   1    -0.162138283794E+04   -0.33046E-02   -0.53372E-01 12166   0.964E-01    0.132E-01
DAV:   2    -0.162138315012E+04   -0.31218E-03   -0.89170E-03 17920   0.133E-01    0.819E-02
DAV:   3    -0.162138305543E+04    0.94692E-04   -0.13844E-03 18578   0.627E-02    0.621E-02
DAV:   4    -0.162138294762E+04    0.10781E-03   -0.49403E-04 17896   0.388E-02    0.285E-02
DAV:   5    -0.162138293697E+04    0.10655E-04   -0.24155E-04 15856   0.218E-02    0.104E-02
DAV:   6    -0.162138293528E+04    0.16877E-05   -0.32494E-05  9104   0.970E-03
   5 F= -.16213829E+04 E0= -.16213908E+04  d E =-.340180E-02
       N       E                     dE             d eps       ncg     rms          rms(c)
DAV:   1    -0.162138351672E+04   -0.57976E-03   -0.63895E-02 12224   0.342E-01    0.663E-02
DAV:   2    -0.162138345460E+04    0.62120E-04   -0.98113E-04 16880   0.501E-02    0.374E-02
DAV:   3    -0.162138343202E+04    0.22585E-04   -0.33432E-04 18656   0.333E-02    0.280E-02
DAV:   4    -0.162138341934E+04    0.12674E-04   -0.10943E-04 15424   0.189E-02    0.101E-02
DAV:   5    -0.162138343231E+04   -0.12969E-04   -0.40446E-05 10048   0.973E-03    0.381E-03
DAV:   6    -0.162138343251E+04   -0.19191E-06   -0.55997E-06  6832   0.509E-03
   6 F= -.16213834E+04 E0= -.16213912E+04  d E =-.497227E-03
       N       E                     dE             d eps       ncg     rms          rms(c)
DAV:   1    -0.162138389919E+04   -0.46688E-03   -0.20591E-02 12224   0.196E-01    0.449E-02
DAV:   2    -0.162138378991E+04    0.10928E-03   -0.34621E-04 16528   0.300E-02    0.232E-02
DAV:   3    -0.162138376178E+04    0.28134E-04   -0.12626E-04 16376   0.211E-02    0.172E-02
DAV:   4    -0.162138372876E+04    0.33012E-04   -0.37074E-05 10168   0.127E-02    0.696E-03
DAV:   5    -0.162138371566E+04    0.13103E-04   -0.19327E-05  6736   0.678E-03    0.222E-03
DAV:   6    -0.162138371540E+04    0.25749E-06   -0.39386E-06  6568   0.444E-03
   7 F= -.16213837E+04 E0= -.16213915E+04  d E =-.282897E-03
       N       E                     dE             d eps       ncg     rms          rms(c)
DAV:   1    -0.162138389894E+04   -0.18327E-03   -0.20111E-02 12224   0.182E-01    0.222E-02
DAV:   2    -0.162138391632E+04   -0.17387E-04   -0.20705E-04 17304   0.235E-02    0.161E-02
DAV:   3    -0.162138390995E+04    0.63672E-05   -0.37205E-05 10424   0.132E-02    0.119E-02
DAV:   4    -0.162138391518E+04   -0.52258E-05   -0.19426E-05  7000   0.719E-03    0.257E-03
DAV:   5    -0.162138391686E+04   -0.16764E-05   -0.48539E-06  6512   0.468E-03
   8 F= -.16213839E+04 E0= -.16213917E+04  d E =-.201454E-03
       N       E                     dE             d eps       ncg     rms          rms(c)
DAV:   1    -0.162138403961E+04   -0.12443E-03   -0.12257E-02 12224   0.141E-01    0.169E-02
DAV:   2    -0.162138403461E+04    0.50068E-05   -0.11364E-04 15696   0.174E-02    0.120E-02
DAV:   3    -0.162138402845E+04    0.61513E-05   -0.21221E-05  8848   0.970E-03    0.893E-03
DAV:   4    -0.162138401973E+04    0.87284E-05   -0.11105E-05  6600   0.556E-03    0.222E-03
DAV:   5    -0.162138401837E+04    0.13557E-05   -0.34727E-06  6488   0.364E-03
   9 F= -.16213840E+04 E0= -.16213919E+04  d E =-.101513E-03
       N       E                     dE             d eps       ncg     rms          rms(c)
DAV:   1    -0.162138407473E+04   -0.55009E-04   -0.43040E-03 12224   0.850E-02    0.129E-02
DAV:   2    -0.162138408018E+04   -0.54418E-05   -0.31863E-05  9104   0.969E-03    0.776E-03
DAV:   3    -0.162138408318E+04   -0.30077E-05   -0.11102E-05  7184   0.720E-03    0.518E-03
DAV:   4    -0.162138408779E+04   -0.46048E-05   -0.62271E-06  6488   0.533E-03    0.161E-03
DAV:   5    -0.162138408951E+04   -0.17163E-05   -0.30524E-06  6480   0.325E-03
  10 F= -.16213841E+04 E0= -.16213919E+04  d E =-.711353E-04
       N       E                     dE             d eps       ncg     rms          rms(c)
DAV:   1    -0.162138415899E+04   -0.71201E-04   -0.51497E-03 12224   0.916E-02    0.115E-02
DAV:   2    -0.162138415276E+04    0.62307E-05   -0.43995E-05 11136   0.991E-03    0.759E-03
DAV:   3    -0.162138414963E+04    0.31326E-05   -0.94129E-06  6840   0.601E-03    0.522E-03
DAV:   4    -0.162138414476E+04    0.48703E-05   -0.43588E-06  6448   0.428E-03    0.145E-03
DAV:   5    -0.162138414382E+04    0.93599E-06   -0.21371E-06  6440   0.263E-03
  11 F= -.16213841E+04 E0= -.16213920E+04  d E =-.543149E-04
       N       E                     dE             d eps       ncg     rms          rms(c)
DAV:   1    -0.162138419297E+04   -0.48209E-04   -0.48721E-03 12224   0.886E-02    0.965E-03
DAV:   2    -0.162138419721E+04   -0.42400E-05   -0.31001E-05  9296   0.872E-03    0.675E-03
DAV:   3    -0.162138419882E+04   -0.16195E-05   -0.90168E-06  6504   0.539E-03    0.415E-03
DAV:   4    -0.162138420126E+04   -0.24372E-05   -0.51698E-06  6320   0.443E-03    0.731E-04
DAV:   5    -0.162138420139E+04   -0.12691E-06   -0.24486E-06  6320   0.289E-03
  12 F= -.16213842E+04 E0= -.16213920E+04  d E =-.575688E-04
       N       E                     dE             d eps       ncg     rms          rms(c)
DAV:   1    -0.162138424754E+04   -0.46282E-04   -0.38659E-03 12224   0.792E-02    0.961E-03
DAV:   2    -0.162138424211E+04    0.54313E-05   -0.26338E-05  8256   0.810E-03    0.626E-03
DAV:   3    -0.162138423866E+04    0.34560E-05   -0.89490E-06  6488   0.516E-03    0.331E-03
DAV:   4    -0.162138423617E+04    0.24869E-05   -0.45218E-06  6296   0.434E-03    0.118E-03
DAV:   5    -0.162138423584E+04    0.33044E-06   -0.24572E-06  6296   0.286E-03
  13 F= -.16213842E+04 E0= -.16213921E+04  d E =-.344509E-04
       N       E                     dE             d eps       ncg     rms          rms(c)
DAV:   1    -0.162138425672E+04   -0.20548E-04   -0.13524E-03 12224   0.473E-02    0.699E-03
DAV:   2    -0.162138426048E+04   -0.37562E-05   -0.10537E-05  6296   0.513E-03    0.419E-03
DAV:   3    -0.162138426384E+04   -0.33674E-05   -0.45406E-06  6296   0.338E-03    0.164E-03
DAV:   4    -0.162138426530E+04   -0.14563E-05   -0.21320E-06  6296   0.279E-03    0.937E-04
DAV:   5    -0.162138426594E+04   -0.63875E-06   -0.11622E-06  6296   0.201E-03
  14 F= -.16213843E+04 E0= -.16213921E+04  d E =-.300975E-04
       N       E                     dE             d eps       ncg     rms          rms(c)
DAV:   1    -0.162138429974E+04   -0.34445E-04   -0.29789E-03 12208   0.691E-02    0.730E-03
DAV:   2    -0.162138429821E+04    0.15301E-05   -0.17881E-05  8512   0.674E-03    0.515E-03
DAV:   3    -0.162138429635E+04    0.18621E-05   -0.64808E-06  6464   0.405E-03    0.209E-03
DAV:   4    -0.162138429545E+04    0.89788E-06   -0.32739E-06  6296   0.342E-03    0.618E-04
DAV:   5    -0.162138429571E+04   -0.26150E-06   -0.17720E-06  6296   0.238E-03
  15 F= -.16213843E+04 E0= -.16213921E+04  d E =-.297775E-04
       N       E                     dE             d eps       ncg     rms          rms(c)
DAV:   1    -0.162138432364E+04   -0.28189E-04   -0.39369E-03 12208   0.796E-02    0.871E-03
DAV:   2    -0.162138432771E+04   -0.40701E-05   -0.26448E-05  8368   0.781E-03    0.603E-03
DAV:   3    -0.162138433049E+04   -0.27797E-05   -0.85062E-06  6384   0.440E-03    0.180E-03
DAV:   4    -0.162138433185E+04   -0.13564E-05   -0.37544E-06  6296   0.345E-03    0.863E-04
DAV:   5    -0.162138433199E+04   -0.14211E-06   -0.19923E-06  6296   0.261E-03
  16 F= -.16213843E+04 E0= -.16213922E+04  d E =-.362757E-04
       N       E                     dE             d eps       ncg     rms          rms(c)
DAV:   1    -0.162138434393E+04   -0.12081E-04   -0.19022E-04 12080   0.194E-02    0.524E-03
DAV:   2    -0.162138433832E+04    0.56096E-05   -0.34056E-06  6296   0.284E-03    0.252E-03
DAV:   3    -0.162138433511E+04    0.32086E-05   -0.15806E-06  6296   0.214E-03    0.111E-03
DAV:   4    -0.162138433395E+04    0.11623E-05   -0.69456E-07  6296   0.173E-03    0.623E-04
DAV:   5    -0.162138433304E+04    0.91235E-06   -0.36682E-07  6296   0.111E-03
  17 F= -.16213843E+04 E0= -.16213922E+04  d E =-.104618E-05
       N       E                     dE             d eps       ncg     rms          rms(c)
DAV:   1    -0.162138435336E+04   -0.19416E-04   -0.21828E-03 12196   0.591E-02    0.600E-03
DAV:   2    -0.162138435485E+04   -0.14843E-05   -0.11897E-05  6544   0.555E-03    0.431E-03
DAV:   3    -0.162138435590E+04   -0.10469E-05   -0.47304E-06  6290   0.318E-03    0.853E-04
DAV:   4    -0.162138435631E+04   -0.41403E-06   -0.20215E-06  6296   0.241E-03    0.534E-04
DAV:   5    -0.162138435632E+04   -0.74629E-08   -0.11086E-06  6290   0.182E-03
  18 F= -.16213844E+04 E0= -.16213922E+04  d E =-.232807E-04
       N       E                     dE             d eps       ncg     rms          rms(c)
DAV:   1    -0.162138439066E+04   -0.34352E-04   -0.76247E-03 12148   0.111E-01    0.114E-02
DAV:   2    -0.162138439076E+04   -0.10135E-06   -0.63612E-05 13768   0.105E-02    0.841E-03
DAV:   3    -0.162138438659E+04    0.41711E-05   -0.84523E-06  6592   0.472E-03    0.307E-03
DAV:   4    -0.162138438511E+04    0.14835E-05   -0.26214E-06  6344   0.358E-03    0.109E-03
DAV:   5    -0.162138438514E+04   -0.31974E-07   -0.10290E-06  6304   0.237E-03
  19 F= -.16213844E+04 E0= -.16213923E+04  d E =-.288237E-04
       N       E                     dE             d eps       ncg     rms          rms(c)
DAV:   1    -0.162138436989E+04    0.15215E-04   -0.16019E-03 12196   0.516E-02    0.725E-03
DAV:   2    -0.162138437335E+04   -0.34527E-05   -0.89334E-06  6272   0.496E-03    0.431E-03
DAV:   3    -0.162138437662E+04   -0.32691E-05   -0.33515E-06  6266   0.279E-03    0.163E-03
DAV:   4    -0.162138437792E+04   -0.13030E-05   -0.12789E-06  6272   0.222E-03    0.951E-04
DAV:   5    -0.162138437851E+04   -0.58867E-06   -0.58311E-07  6272   0.151E-03
  20 F= -.16213844E+04 E0= -.16213922E+04  d E =0.663370E-05
       N       E                     dE             d eps       ncg     rms          rms(c)
DAV:   1    -0.162138439919E+04   -0.21268E-04   -0.30328E-03 12178   0.698E-02    0.673E-03
DAV:   2    -0.162138439913E+04    0.56985E-07   -0.14278E-05  6288   0.616E-03    0.486E-03
DAV:   3    -0.162138439803E+04    0.10970E-05   -0.51539E-06  6254   0.322E-03    0.751E-04
DAV:   4    -0.162138439814E+04   -0.10644E-06   -0.19080E-06  6272   0.216E-03    0.554E-04
DAV:   5    -0.162138439824E+04   -0.10296E-06   -0.98182E-07  6266   0.165E-03
  21 F= -.16213844E+04 E0= -.16213923E+04  d E =-.197352E-04
       N       E                     dE             d eps       ncg     rms          rms(c)
DAV:   1    -0.162138442999E+04   -0.31849E-04   -0.18416E-02 12100   0.172E-01    0.167E-02
DAV:   2    -0.162138443958E+04   -0.95930E-05   -0.15328E-04 17144   0.159E-02    0.128E-02
DAV:   3    -0.162138443536E+04    0.42239E-05   -0.14648E-05  7106   0.598E-03    0.277E-03
DAV:   4    -0.162138443545E+04   -0.91736E-07   -0.33204E-06  6472   0.452E-03    0.167E-03
DAV:   5    -0.162138443534E+04    0.11385E-06   -0.91974E-07  6350   0.235E-03
  22 F= -.16213844E+04 E0= -.16213923E+04  d E =-.370928E-04
       N       E                     dE             d eps       ncg     rms          rms(c)
DAV:   1    -0.162138444814E+04   -0.12693E-04   -0.69188E-03 12148   0.105E-01    0.103E-02
DAV:   2    -0.162138444981E+04   -0.16638E-05   -0.51095E-05 12392   0.974E-03    0.778E-03
DAV:   3    -0.162138444730E+04    0.25063E-05   -0.97112E-06  6578   0.487E-03    0.197E-03
DAV:   4    -0.162138444700E+04    0.30141E-06   -0.26077E-06  6272   0.325E-03    0.104E-03
DAV:   5    -0.162138444712E+04   -0.11938E-06   -0.11583E-06  6272   0.218E-03
  23 F= -.16213844E+04 E0= -.16213923E+04  d E =-.117827E-04
       N       E                     dE             d eps       ncg     rms          rms(c)
DAV:   1    -0.162138445112E+04   -0.41167E-05   -0.77043E-03 12112   0.111E-01    0.109E-02
DAV:   2    -0.162138445560E+04   -0.44849E-05   -0.62229E-05 13760   0.102E-02    0.830E-03
DAV:   3    -0.162138445478E+04    0.82472E-06   -0.98707E-06  6530   0.489E-03    0.190E-03
DAV:   4    -0.162138445510E+04   -0.32500E-06   -0.21502E-06  6272   0.316E-03    0.116E-03
DAV:   5    -0.162138445505E+04    0.52231E-07   -0.85584E-07  6254   0.194E-03
  24 F= -.16213845E+04 E0= -.16213923E+04  d E =-.793024E-05
