       N       E                     dE             d eps       ncg     rms          rms(c)
DAV:   1     0.264375357015E+04    0.26438E+04   -0.31251E+05 12372   0.145E+03
DAV:   2    -0.118923426811E+04   -0.38330E+04   -0.36639E+04 14130   0.338E+02
DAV:   3    -0.169482633932E+04   -0.50559E+03   -0.47905E+03 18896   0.831E+01
DAV:   4    -0.172069474770E+04   -0.25868E+02   -0.24947E+02 17440   0.187E+01
DAV:   5    -0.172174653525E+04   -0.10518E+01   -0.10360E+01 19328   0.385E+00    0.458E+01
DAV:   6    -0.166448969755E+04    0.57257E+02   -0.13085E+02 18184   0.154E+01    0.240E+01
DAV:   7    -0.164941243658E+04    0.15077E+02   -0.83192E+01 18008   0.146E+01    0.146E+01
DAV:   8    -0.163937416670E+04    0.10038E+02   -0.42996E+01 17488   0.119E+01    0.469E+00
DAV:   9    -0.163869059481E+04    0.68357E+00   -0.14002E+01 18080   0.592E+00    0.212E+00
DAV:  10    -0.163868666855E+04    0.39263E-02   -0.18636E+00 15512   0.206E+00    0.150E+00
DAV:  11    -0.163864208759E+04    0.44581E-01   -0.48952E-01 17064   0.889E-01    0.710E-01
DAV:  12    -0.163862901745E+04    0.13070E-01   -0.66875E-02 17456   0.387E-01    0.333E-01
DAV:  13    -0.163862534603E+04    0.36714E-02   -0.17921E-02 17536   0.243E-01    0.140E-01
DAV:  14    -0.163862506634E+04    0.27969E-03   -0.66150E-03 15832   0.125E-01    0.587E-02
DAV:  15    -0.163862511641E+04   -0.50071E-04   -0.13059E-03 14784   0.580E-02    0.270E-02
DAV:  16    -0.163862512719E+04   -0.10780E-04   -0.24343E-04 16096   0.238E-02    0.149E-02
DAV:  17    -0.163862511751E+04    0.96841E-05   -0.42942E-05 10008   0.123E-02
   1 F= -.16386251E+04 E0= -.16386284E+04  d E =-.163863E+04
       N       E                     dE             d eps       ncg     rms          rms(c)
DAV:   1    -0.163945977415E+04   -0.83465E+00   -0.24073E+02 12348   0.204E+01    0.470E+00
DAV:   2    -0.163865743998E+04    0.80233E+00   -0.54032E+00 16808   0.332E+00    0.238E+00
DAV:   3    -0.163844857889E+04    0.20886E+00   -0.14127E+00 17112   0.187E+00    0.159E+00
DAV:   4    -0.163834174467E+04    0.10683E+00   -0.45609E-01 16872   0.130E+00    0.764E-01
DAV:   5    -0.163831714134E+04    0.24603E-01   -0.21507E-01 15800   0.803E-01    0.282E-01
DAV:   6    -0.163831860346E+04   -0.14621E-02   -0.35937E-02 15512   0.291E-01    0.208E-01
DAV:   7    -0.163831877408E+04   -0.17062E-03   -0.70810E-03 16016   0.119E-01    0.121E-01
DAV:   8    -0.163831915132E+04   -0.37725E-03   -0.27960E-03 15608   0.827E-02    0.619E-02
DAV:   9    -0.163831900946E+04    0.14186E-03   -0.64960E-04 15648   0.483E-02    0.312E-02
DAV:  10    -0.163831896564E+04    0.43821E-04   -0.36504E-04 16992   0.237E-02    0.126E-02
DAV:  11    -0.163831897070E+04   -0.50601E-05   -0.35686E-05  9496   0.998E-03
   2 F= -.16383190E+04 E0= -.16383127E+04  d E =0.306147E+00
       N       E                     dE             d eps       ncg     rms          rms(c)
DAV:   1    -0.164026870628E+04   -0.19497E+01   -0.42452E+01 12348   0.104E+01    0.355E+00
DAV:   2    -0.163966933111E+04    0.59938E+00   -0.88955E-01 12960   0.142E+00    0.168E+00
DAV:   3    -0.163952774661E+04    0.14158E+00   -0.39799E-01 14494   0.102E+00    0.683E-01
DAV:   4    -0.163950136012E+04    0.26386E-01   -0.12601E-01 14856   0.741E-01    0.237E-01
DAV:   5    -0.163949965871E+04    0.17014E-02   -0.42154E-02 15047   0.373E-01    0.105E-01
DAV:   6    -0.163950056620E+04   -0.90749E-03   -0.77982E-03 15960   0.130E-01    0.772E-02
DAV:   7    -0.163950090047E+04   -0.33427E-03   -0.11870E-03 16328   0.482E-02    0.441E-02
DAV:   8    -0.163950116239E+04   -0.26192E-03   -0.36373E-04 14632   0.300E-02    0.225E-02
DAV:   9    -0.163950123728E+04   -0.74892E-04   -0.14011E-04 14712   0.180E-02    0.113E-02
DAV:  10    -0.163950127366E+04   -0.36381E-04   -0.75184E-05 13592   0.122E-02    0.684E-03
DAV:  11    -0.163950127656E+04   -0.28990E-05   -0.85904E-06  7376   0.535E-03
   3 F= -.16395013E+04 E0= -.16395022E+04  d E =-.118231E+01
       N       E                     dE             d eps       ncg     rms          rms(c)
DAV:   1    -0.163960166581E+04   -0.10039E+00   -0.71339E+00 12348   0.352E+00    0.711E-01
DAV:   2    -0.163958848539E+04    0.13180E-01   -0.11883E-01 17080   0.559E-01    0.395E-01
DAV:   3    -0.163958367087E+04    0.48145E-02   -0.33230E-02 17952   0.308E-01    0.276E-01
DAV:   4    -0.163957991799E+04    0.37529E-02   -0.13909E-02 17032   0.219E-01    0.975E-02
DAV:   5    -0.163957951778E+04    0.40022E-03   -0.46117E-03 15648   0.114E-01    0.438E-02
DAV:   6    -0.163957955364E+04   -0.35859E-04   -0.71624E-04 15960   0.399E-02    0.310E-02
DAV:   7    -0.163957955651E+04   -0.28780E-05   -0.12829E-04 15088   0.179E-02    0.187E-02
DAV:   8    -0.163957956048E+04   -0.39687E-05   -0.66884E-05 14384   0.129E-02
   4 F= -.16395796E+04 E0= -.16395796E+04  d E =-.782839E-01
       N       E                     dE             d eps       ncg     rms          rms(c)
DAV:   1    -0.163958342279E+04   -0.38663E-02   -0.67465E-01 12423   0.103E+00    0.125E-01
DAV:   2    -0.163958378378E+04   -0.36099E-03   -0.99446E-03 16528   0.170E-01    0.836E-02
DAV:   3    -0.163958352831E+04    0.25547E-03   -0.21100E-03 17559   0.819E-02    0.610E-02
DAV:   4    -0.163958344938E+04    0.78932E-04   -0.44108E-04 17576   0.353E-02    0.324E-02
DAV:   5    -0.163958343432E+04    0.15061E-04   -0.22719E-04 14616   0.224E-02    0.918E-03
DAV:   6    -0.163958343160E+04    0.27192E-05   -0.22169E-05  8688   0.874E-03
   5 F= -.16395834E+04 E0= -.16395835E+04  d E =-.387112E-02
       N       E                     dE             d eps       ncg     rms          rms(c)
DAV:   1    -0.163958423550E+04   -0.80119E-03   -0.15841E-01 12548   0.503E-01    0.651E-02
DAV:   2    -0.163958430009E+04   -0.64587E-04   -0.19633E-03 16040   0.837E-02    0.431E-02
DAV:   3    -0.163958424424E+04    0.55854E-04   -0.47173E-04 18286   0.393E-02    0.318E-02
DAV:   4    -0.163958423151E+04    0.12722E-04   -0.12963E-04 15856   0.190E-02    0.130E-02
DAV:   5    -0.163958423807E+04   -0.65510E-05   -0.39776E-05 10264   0.102E-02
   6 F= -.16395842E+04 E0= -.16395843E+04  d E =-.806468E-03
       N       E                     dE             d eps       ncg     rms          rms(c)
DAV:   1    -0.163958456453E+04   -0.33301E-03   -0.13961E-02 12600   0.173E-01    0.531E-02
DAV:   2    -0.163958439323E+04    0.17129E-03   -0.29720E-04 15080   0.283E-02    0.261E-02
DAV:   3    -0.163958434596E+04    0.47271E-04   -0.12449E-04 15576   0.202E-02    0.162E-02
DAV:   4    -0.163958430933E+04    0.36633E-04   -0.51784E-05 12288   0.155E-02    0.501E-03
DAV:   5    -0.163958430016E+04    0.91729E-05   -0.16428E-05  7072   0.706E-03
   7 F= -.16395843E+04 E0= -.16395843E+04  d E =-.620919E-04
       N       E                     dE             d eps       ncg     rms          rms(c)
DAV:   1    -0.163958453348E+04   -0.22415E-03   -0.18878E-02 12600   0.179E-01    0.308E-02
DAV:   2    -0.163958453627E+04   -0.27857E-05   -0.20399E-04 15912   0.264E-02    0.184E-02
DAV:   3    -0.163958453391E+04    0.23547E-05   -0.54386E-05 12232   0.142E-02    0.129E-02
DAV:   4    -0.163958454239E+04   -0.84744E-05   -0.23541E-05  8072   0.921E-03    0.270E-03
DAV:   5    -0.163958454536E+04   -0.29745E-05   -0.68506E-06  6912   0.489E-03
   8 F= -.16395845E+04 E0= -.16395846E+04  d E =-.245205E-03
       N       E                     dE             d eps       ncg     rms          rms(c)
DAV:   1    -0.163958461711E+04   -0.74722E-04   -0.88467E-03 12600   0.118E-01    0.142E-02
DAV:   2    -0.163958461595E+04    0.11576E-05   -0.92172E-05 15168   0.183E-02    0.102E-02
DAV:   3    -0.163958461067E+04    0.52840E-05   -0.17688E-05  9032   0.873E-03    0.752E-03
DAV:   4    -0.163958460458E+04    0.60885E-05   -0.12360E-05  6920   0.527E-03    0.151E-03
DAV:   5    -0.163958460469E+04   -0.11092E-06   -0.31624E-06  6864   0.360E-03
   9 F= -.16395846E+04 E0= -.16395846E+04  d E =-.593286E-04
       N       E                     dE             d eps       ncg     rms          rms(c)
DAV:   1    -0.163958462363E+04   -0.19049E-04   -0.32750E-03 12600   0.739E-02    0.123E-02
DAV:   2    -0.163958462899E+04   -0.53578E-05   -0.25244E-05  8936   0.974E-03    0.732E-03
DAV:   3    -0.163958463197E+04   -0.29871E-05   -0.88578E-06  7256   0.694E-03    0.458E-03
DAV:   4    -0.163958463723E+04   -0.52533E-05   -0.59502E-06  6824   0.486E-03    0.118E-03
DAV:   5    -0.163958463810E+04   -0.87612E-06   -0.24709E-06  6792   0.315E-03
  10 F= -.16395846E+04 E0= -.16395847E+04  d E =-.334124E-04
       N       E                     dE             d eps       ncg     rms          rms(c)
DAV:   1    -0.163958466850E+04   -0.31273E-04   -0.83277E-04 12600   0.393E-02    0.961E-03
DAV:   2    -0.163958465688E+04    0.11624E-04   -0.10035E-05  6672   0.580E-03    0.505E-03
DAV:   3    -0.163958465212E+04    0.47545E-05   -0.43712E-06  6672   0.480E-03    0.293E-03
DAV:   4    -0.163958464785E+04    0.42710E-05   -0.25964E-06  6552   0.356E-03    0.845E-04
DAV:   5    -0.163958464692E+04    0.93325E-06   -0.11835E-06  6552   0.208E-03
  11 F= -.16395846E+04 E0= -.16395847E+04  d E =-.881473E-05
       N       E                     dE             d eps       ncg     rms          rms(c)
DAV:   1    -0.163958466108E+04   -0.13234E-04   -0.17714E-03 12600   0.529E-02    0.585E-03
DAV:   2    -0.163958466301E+04   -0.19298E-05   -0.11252E-05  7008   0.612E-03    0.414E-03
DAV:   3    -0.163958466360E+04   -0.58699E-06   -0.34329E-06  6736   0.374E-03    0.287E-03
DAV:   4    -0.163958466513E+04   -0.15323E-05   -0.25036E-06  6552   0.284E-03    0.495E-04
DAV:   5    -0.163958466506E+04    0.73956E-07   -0.11189E-06  6552   0.202E-03
  12 F= -.16395847E+04 E0= -.16395847E+04  d E =-.181419E-04
       N       E                     dE             d eps       ncg     rms          rms(c)
DAV:   1    -0.163958468015E+04   -0.15021E-04   -0.18433E-03 12600   0.540E-02    0.637E-03
DAV:   2    -0.163958467730E+04    0.28508E-05   -0.12178E-05  7600   0.614E-03    0.430E-03
DAV:   3    -0.163958467599E+04    0.13179E-05   -0.40565E-06  6672   0.388E-03    0.283E-03
DAV:   4    -0.163958467370E+04    0.22859E-05   -0.25870E-06  6552   0.302E-03    0.589E-04
DAV:   5    -0.163958467380E+04   -0.97111E-07   -0.12892E-06  6552   0.215E-03
  13 F= -.16395847E+04 E0= -.16395847E+04  d E =-.873748E-05
       N       E                     dE             d eps       ncg     rms          rms(c)
DAV:   1    -0.163958467301E+04    0.69482E-06   -0.66953E-05 12152   0.126E-02    0.426E-03
DAV:   2    -0.163958467606E+04   -0.30546E-05   -0.16858E-06  6552   0.204E-03    0.202E-03
DAV:   3    -0.163958467847E+04   -0.24130E-05   -0.84409E-07  6552   0.145E-03    0.823E-04
DAV:   4    -0.163958467961E+04   -0.11358E-05   -0.35442E-07  6552   0.108E-03    0.316E-04
DAV:   5    -0.163958468008E+04   -0.46853E-06   -0.17176E-07  6552   0.693E-04
  14 F= -.16395847E+04 E0= -.16395847E+04  d E =-.627996E-05
       N       E                     dE             d eps       ncg     rms          rms(c)
DAV:   1    -0.163958468886E+04   -0.92464E-05   -0.83866E-04 12600   0.364E-02    0.388E-03
DAV:   2    -0.163958468795E+04    0.90424E-06   -0.47807E-06  6552   0.373E-03    0.275E-03
DAV:   3    -0.163958468733E+04    0.61986E-06   -0.15206E-06  6552   0.213E-03    0.159E-03
DAV:   4    -0.163958468648E+04    0.85493E-06   -0.93476E-07  6552   0.177E-03    0.316E-04
DAV:   5    -0.163958468663E+04   -0.15347E-06   -0.44666E-07  6552   0.124E-03
  15 F= -.16395847E+04 E0= -.16395847E+04  d E =-.655235E-05
       N       E                     dE             d eps       ncg     rms          rms(c)
DAV:   1    -0.163958469306E+04   -0.65864E-05   -0.16302E-03 12600   0.507E-02    0.534E-03
DAV:   2    -0.163958469479E+04   -0.17235E-05   -0.94271E-06  6904   0.514E-03    0.383E-03
DAV:   3    -0.163958469610E+04   -0.13173E-05   -0.35720E-06  6664   0.296E-03    0.964E-04
DAV:   4    -0.163958469667E+04   -0.57095E-06   -0.16249E-06  6552   0.234E-03    0.457E-04
DAV:   5    -0.163958469658E+04    0.96085E-07   -0.89640E-07  6552   0.167E-03
  16 F= -.16395847E+04 E0= -.16395847E+04  d E =-.994859E-05
       N       E                     dE             d eps       ncg     rms          rms(c)
DAV:   1    -0.163958469907E+04   -0.23993E-05   -0.11551E-04 12352   0.150E-02    0.380E-03
DAV:   2    -0.163958469502E+04    0.40554E-05   -0.11093E-06  6552   0.173E-03    0.193E-03
DAV:   3    -0.163958469226E+04    0.27628E-05   -0.61571E-07  6552   0.120E-03    0.605E-04
DAV:   4    -0.163958469140E+04    0.85799E-06   -0.17493E-07  6552   0.930E-04    0.275E-04
DAV:   5    -0.163958469109E+04    0.30511E-06   -0.67014E-08  6552   0.543E-04
  17 F= -.16395847E+04 E0= -.16395847E+04  d E =0.548583E-05
       N       E                     dE             d eps       ncg     rms          rms(c)
DAV:   1    -0.163958469473E+04   -0.33296E-05   -0.60180E-04 12600   0.309E-02    0.332E-03
DAV:   2    -0.163958469596E+04   -0.12371E-05   -0.32050E-06  6552   0.299E-03    0.232E-03
DAV:   3    -0.163958469723E+04   -0.12617E-05   -0.12155E-06  6552   0.162E-03    0.401E-04
DAV:   4    -0.163958469742E+04   -0.19668E-06   -0.46704E-07  6552   0.112E-03    0.228E-04
DAV:   5    -0.163958469740E+04    0.20224E-07   -0.24859E-07  6552   0.852E-04
  18 F= -.16395847E+04 E0= -.16395847E+04  d E =-.630995E-05
       N       E                     dE             d eps       ncg     rms          rms(c)
DAV:   1    -0.163958470159E+04   -0.41658E-05   -0.72874E-04 12600   0.338E-02    0.351E-03
DAV:   2    -0.163958470123E+04    0.35353E-06   -0.42357E-06  6552   0.345E-03    0.255E-03
DAV:   3    -0.163958470063E+04    0.60021E-06   -0.16259E-06  6552   0.196E-03    0.571E-04
DAV:   4    -0.163958470053E+04    0.10763E-06   -0.73896E-07  6552   0.150E-03    0.320E-04
DAV:   5    -0.163958470062E+04   -0.95524E-07   -0.40975E-07  6552   0.112E-03
  19 F= -.16395847E+04 E0= -.16395847E+04  d E =-.322022E-05
       N       E                     dE             d eps       ncg     rms          rms(c)
DAV:   1    -0.163958469770E+04    0.28313E-05   -0.34476E-05  9160   0.923E-03    0.283E-03
DAV:   2    -0.163958470015E+04   -0.24521E-05   -0.13944E-06  6576   0.235E-03    0.141E-03
DAV:   3    -0.163958470204E+04   -0.18888E-05   -0.27793E-07  6552   0.911E-04    0.610E-04
DAV:   4    -0.163958470284E+04   -0.80162E-06   -0.11407E-07  6552   0.784E-04    0.234E-04
DAV:   5    -0.163958470322E+04   -0.38203E-06   -0.55678E-08  6552   0.412E-04
  20 F= -.16395847E+04 E0= -.16395848E+04  d E =-.259774E-05
       N       E                     dE             d eps       ncg     rms          rms(c)
DAV:   1    -0.163958470743E+04   -0.45939E-05   -0.24322E-04 12392   0.198E-02    0.262E-03
DAV:   2    -0.163958470572E+04    0.17112E-05   -0.15224E-06  6552   0.206E-03    0.165E-03
DAV:   3    -0.163958470444E+04    0.12802E-05   -0.55471E-07  6552   0.117E-03    0.653E-04
DAV:   4    -0.163958470384E+04    0.60078E-06   -0.24624E-07  6552   0.912E-04    0.257E-04
DAV:   5    -0.163958470379E+04    0.52608E-07   -0.12469E-07  6552   0.650E-04
  21 F= -.16395847E+04 E0= -.16395847E+04  d E =-.567100E-06
       N       E                     dE             d eps       ncg     rms          rms(c)
DAV:   1    -0.163958470513E+04   -0.12949E-05   -0.20794E-04 12384   0.181E-02    0.189E-03
DAV:   2    -0.163958470534E+04   -0.20965E-06   -0.13154E-06  6552   0.192E-03    0.137E-03
DAV:   3    -0.163958470554E+04   -0.19412E-06   -0.54054E-07  6552   0.109E-03    0.220E-04
DAV:   4    -0.163958470556E+04   -0.20449E-07   -0.22059E-07  6552   0.762E-04    0.153E-04
DAV:   5    -0.163958470556E+04    0.11128E-08   -0.12427E-07  6552   0.578E-04
  22 F= -.16395847E+04 E0= -.16395848E+04  d E =-.177058E-05
       N       E                     dE             d eps       ncg     rms          rms(c)
DAV:   1    -0.163958470883E+04   -0.32727E-05   -0.35125E-04 12496   0.238E-02    0.315E-03
DAV:   2    -0.163958470672E+04    0.21149E-05   -0.23123E-06  6552   0.254E-03    0.198E-03
DAV:   3    -0.163958470514E+04    0.15795E-05   -0.88372E-07  6552   0.149E-03    0.767E-04
DAV:   4    -0.163958470444E+04    0.69344E-06   -0.40605E-07  6552   0.117E-03    0.324E-04
DAV:   5    -0.163958470438E+04    0.62486E-07   -0.21263E-07  6552   0.853E-04
  23 F= -.16395847E+04 E0= -.16395847E+04  d E =0.117657E-05
