       N       E                     dE             d eps       ncg     rms          rms(c)
DAV:   1     0.250570582366E+04    0.25057E+04   -0.30552E+05 12140   0.144E+03
DAV:   2    -0.119698423766E+04   -0.37027E+04   -0.35471E+04 13970   0.326E+02
DAV:   3    -0.167656408794E+04   -0.47958E+03   -0.45161E+03 18576   0.825E+01
DAV:   4    -0.170189192980E+04   -0.25328E+02   -0.24278E+02 16992   0.182E+01
DAV:   5    -0.170294181984E+04   -0.10499E+01   -0.10330E+01 18888   0.398E+00    0.444E+01
DAV:   6    -0.165120962701E+04    0.51732E+02   -0.15089E+02 18224   0.171E+01    0.240E+01
DAV:   7    -0.163811362680E+04    0.13096E+02   -0.95900E+01 19280   0.165E+01    0.169E+01
DAV:   8    -0.162581764167E+04    0.12296E+02   -0.56535E+01 17976   0.123E+01    0.687E+00
DAV:   9    -0.162362263191E+04    0.21950E+01   -0.19606E+01 17440   0.709E+00    0.223E+00
DAV:  10    -0.162368091637E+04   -0.58284E-01   -0.30743E+00 16304   0.255E+00    0.157E+00
DAV:  11    -0.162364632005E+04    0.34596E-01   -0.43872E-01 16104   0.964E-01    0.954E-01
DAV:  12    -0.162362130333E+04    0.25017E-01   -0.15898E-01 14720   0.665E-01    0.472E-01
DAV:  13    -0.162361463360E+04    0.66697E-02   -0.32672E-02 14968   0.306E-01    0.203E-01
DAV:  14    -0.162361365435E+04    0.97925E-03   -0.95489E-03 14968   0.133E-01    0.773E-02
DAV:  15    -0.162361361508E+04    0.39277E-04   -0.18049E-03 16232   0.725E-02    0.429E-02
DAV:  16    -0.162361359947E+04    0.15607E-04   -0.46240E-04 15712   0.392E-02    0.199E-02
DAV:  17    -0.162361360012E+04   -0.65065E-06   -0.12478E-04 14432   0.177E-02    0.935E-03
DAV:  18    -0.162361359792E+04    0.22002E-05   -0.29537E-05  8480   0.906E-03
   1 F= -.16236136E+04 E0= -.16236202E+04  d E =-.162361E+04
       N       E                     dE             d eps       ncg     rms          rms(c)
DAV:   1    -0.162476957420E+04   -0.11560E+01   -0.46380E+02 12124   0.307E+01    0.948E+00
DAV:   2    -0.162081218859E+04    0.39574E+01   -0.14988E+01 16440   0.563E+00    0.473E+00
DAV:   3    -0.161995078200E+04    0.86141E+00   -0.61837E+00 17760   0.404E+00    0.333E+00
DAV:   4    -0.161939116307E+04    0.55962E+00   -0.22737E+00 17928   0.281E+00    0.175E+00
DAV:   5    -0.161923338913E+04    0.15777E+00   -0.11632E+00 15704   0.173E+00    0.546E-01
DAV:   6    -0.161923673438E+04   -0.33452E-02   -0.18068E-01 15048   0.681E-01    0.396E-01
DAV:   7    -0.161923705531E+04   -0.32093E-03   -0.32595E-02 16288   0.271E-01    0.278E-01
DAV:   8    -0.161923830091E+04   -0.12456E-02   -0.17213E-02 15896   0.170E-01    0.137E-01
DAV:   9    -0.161923850457E+04   -0.20366E-03   -0.35896E-03 13976   0.894E-02    0.809E-02
DAV:  10    -0.161923821450E+04    0.29007E-03   -0.17249E-03 16144   0.538E-02    0.292E-02
DAV:  11    -0.161923824035E+04   -0.25849E-04   -0.36395E-04 17944   0.281E-02    0.237E-02
DAV:  12    -0.161923824542E+04   -0.50730E-05   -0.92714E-05 14712   0.164E-02
   2 F= -.16192382E+04 E0= -.16192437E+04  d E =0.437535E+01
       N       E                     dE             d eps       ncg     rms          rms(c)
DAV:   1    -0.162824618175E+04   -0.90079E+01   -0.15773E+02 12124   0.203E+01    0.693E+00
DAV:   2    -0.162595551863E+04    0.22907E+01   -0.39642E+00 13784   0.313E+00    0.327E+00
DAV:   3    -0.162552627239E+04    0.42925E+00   -0.17699E+00 15224   0.227E+00    0.188E+00
DAV:   4    -0.162530461610E+04    0.22166E+00   -0.78205E-01 15880   0.188E+00    0.736E-01
DAV:   5    -0.162528263099E+04    0.21985E-01   -0.31808E-01 15256   0.936E-01    0.276E-01
DAV:   6    -0.162528507927E+04   -0.24483E-02   -0.44333E-02 14608   0.345E-01    0.196E-01
DAV:   7    -0.162528603666E+04   -0.95739E-03   -0.81454E-03 16096   0.134E-01    0.123E-01
DAV:   8    -0.162528733185E+04   -0.12952E-02   -0.40332E-03 14856   0.852E-02    0.613E-02
DAV:   9    -0.162528755756E+04   -0.22570E-03   -0.90681E-04 14448   0.443E-02    0.309E-02
DAV:  10    -0.162528767308E+04   -0.11552E-03   -0.56373E-04 17424   0.319E-02    0.233E-02
DAV:  11    -0.162528771160E+04   -0.38515E-04   -0.58741E-05 12520   0.128E-02    0.150E-02
DAV:  12    -0.162528770415E+04    0.74443E-05   -0.22994E-05  7728   0.785E-03
   3 F= -.16252877E+04 E0= -.16252917E+04  d E =-.604946E+01
       N       E                     dE             d eps       ncg     rms          rms(c)
DAV:   1    -0.162534719208E+04   -0.59480E-01   -0.10120E+01 12124   0.404E+00    0.543E-01
DAV:   2    -0.162535365795E+04   -0.64659E-02   -0.17530E-01 17208   0.688E-01    0.374E-01
DAV:   3    -0.162534798174E+04    0.56762E-02   -0.42018E-02 18296   0.363E-01    0.265E-01
DAV:   4    -0.162534615705E+04    0.18247E-02   -0.84680E-03 17608   0.156E-01    0.142E-01
DAV:   5    -0.162534555018E+04    0.60687E-03   -0.43523E-03 15480   0.106E-01    0.427E-02
DAV:   6    -0.162534553095E+04    0.19232E-04   -0.78758E-04 15856   0.491E-02    0.294E-02
DAV:   7    -0.162534551775E+04    0.13201E-04   -0.16966E-04 15240   0.224E-02    0.192E-02
DAV:   8    -0.162534551817E+04   -0.42858E-06   -0.68688E-05 13496   0.113E-02
   4 F= -.16253455E+04 E0= -.16253502E+04  d E =-.578140E-01
       N       E                     dE             d eps       ncg     rms          rms(c)
DAV:   1    -0.162535371090E+04   -0.81932E-02   -0.12414E+00 12137   0.141E+00    0.163E-01
DAV:   2    -0.162535478064E+04   -0.10697E-02   -0.17482E-02 16472   0.247E-01    0.130E-01
DAV:   3    -0.162535380353E+04    0.97711E-03   -0.49039E-03 17701   0.130E-01    0.852E-02
DAV:   4    -0.162535364568E+04    0.15785E-03   -0.93822E-04 16592   0.482E-02    0.401E-02
DAV:   5    -0.162535362604E+04    0.19641E-04   -0.40839E-04 15288   0.323E-02    0.132E-02
DAV:   6    -0.162535361997E+04    0.60687E-05   -0.72554E-05 14000   0.161E-02
   5 F= -.16253536E+04 E0= -.16253582E+04  d E =-.810180E-02
       N       E                     dE             d eps       ncg     rms          rms(c)
DAV:   1    -0.162535579413E+04   -0.21681E-02   -0.29960E-01 12283   0.727E-01    0.143E-01
DAV:   2    -0.162535527925E+04    0.51488E-03   -0.52744E-03 16328   0.142E-01    0.918E-02
DAV:   3    -0.162535478516E+04    0.49409E-03   -0.21416E-03 16831   0.878E-02    0.603E-02
DAV:   4    -0.162535455569E+04    0.22947E-03   -0.58286E-04 15344   0.419E-02    0.215E-02
DAV:   5    -0.162535451431E+04    0.41379E-04   -0.18498E-04 15264   0.228E-02    0.927E-03
DAV:   6    -0.162535451035E+04    0.39675E-05   -0.30748E-05  9392   0.113E-02
   6 F= -.16253545E+04 E0= -.16253592E+04  d E =-.890375E-03
       N       E                     dE             d eps       ncg     rms          rms(c)
DAV:   1    -0.162535657350E+04   -0.20592E-02   -0.55602E-02 12351   0.352E-01    0.106E-01
DAV:   2    -0.162535616058E+04    0.41292E-03   -0.99621E-04 14760   0.479E-02    0.508E-02
DAV:   3    -0.162535609792E+04    0.62663E-04   -0.35169E-04 14343   0.293E-02    0.238E-02
DAV:   4    -0.162535610272E+04   -0.48001E-05   -0.12782E-04 14872   0.231E-02    0.958E-03
DAV:   5    -0.162535610931E+04   -0.65923E-05   -0.43846E-05 11520   0.134E-02
   7 F= -.16253561E+04 E0= -.16253608E+04  d E =-.159896E-02
       N       E                     dE             d eps       ncg     rms          rms(c)
DAV:   1    -0.162535674570E+04   -0.64299E-03   -0.70298E-02 12294   0.338E-01    0.435E-02
DAV:   2    -0.162535677573E+04   -0.30027E-04   -0.96352E-04 16552   0.627E-02    0.347E-02
DAV:   3    -0.162535669315E+04    0.82577E-04   -0.32619E-04 17376   0.345E-02    0.218E-02
DAV:   4    -0.162535666736E+04    0.25799E-04   -0.60991E-05 13328   0.130E-02    0.817E-03
DAV:   5    -0.162535666048E+04    0.68748E-05   -0.15591E-05  7544   0.815E-03
   8 F= -.16253567E+04 E0= -.16253613E+04  d E =-.551170E-03
       N       E                     dE             d eps       ncg     rms          rms(c)
DAV:   1    -0.162535687578E+04   -0.20842E-03   -0.37096E-02 12344   0.246E-01    0.299E-02
DAV:   2    -0.162535690624E+04   -0.30468E-04   -0.40213E-04 16416   0.360E-02    0.221E-02
DAV:   3    -0.162535688978E+04    0.16468E-04   -0.10630E-04 15560   0.193E-02    0.158E-02
DAV:   4    -0.162535689485E+04   -0.50739E-05   -0.30037E-05  8008   0.925E-03    0.342E-03
DAV:   5    -0.162535689696E+04   -0.21101E-05   -0.71390E-06  6800   0.562E-03
   9 F= -.16253569E+04 E0= -.16253615E+04  d E =-.236479E-03
       N       E                     dE             d eps       ncg     rms          rms(c)
DAV:   1    -0.162535699727E+04   -0.10242E-03   -0.24409E-03 12360   0.758E-02    0.248E-02
DAV:   2    -0.162535694737E+04    0.49894E-04   -0.56142E-05 12496   0.122E-02    0.122E-02
DAV:   3    -0.162535693136E+04    0.16018E-04   -0.21540E-05  8880   0.976E-03    0.750E-03
DAV:   4    -0.162535691803E+04    0.13328E-04   -0.81741E-06  7096   0.713E-03    0.268E-03
DAV:   5    -0.162535691288E+04    0.51540E-05   -0.50789E-06  6536   0.387E-03
  10 F= -.16253569E+04 E0= -.16253616E+04  d E =-.159160E-04
       N       E                     dE             d eps       ncg     rms          rms(c)
DAV:   1    -0.162535701251E+04   -0.94482E-04   -0.10637E-02 12344   0.132E-01    0.161E-02
DAV:   2    -0.162535702255E+04   -0.10034E-04   -0.98241E-05 15104   0.168E-02    0.113E-02
DAV:   3    -0.162535702094E+04    0.16056E-05   -0.18611E-05  8568   0.872E-03    0.837E-03
DAV:   4    -0.162535702603E+04   -0.50872E-05   -0.11180E-05  6560   0.520E-03    0.179E-03
DAV:   5    -0.162535702724E+04   -0.12150E-05   -0.30763E-06  6456   0.347E-03
  11 F= -.16253570E+04 E0= -.16253617E+04  d E =-.114366E-03
       N       E                     dE             d eps       ncg     rms          rms(c)
DAV:   1    -0.162535709496E+04   -0.68930E-04   -0.83248E-03 12344   0.116E-01    0.126E-02
DAV:   2    -0.162535709504E+04   -0.85119E-07   -0.74088E-05 14480   0.140E-02    0.951E-03
DAV:   3    -0.162535709188E+04    0.31642E-05   -0.15264E-05  7968   0.749E-03    0.713E-03
DAV:   4    -0.162535708733E+04    0.45515E-05   -0.86770E-06  6448   0.447E-03    0.139E-03
DAV:   5    -0.162535708717E+04    0.16048E-06   -0.24594E-06  6416   0.313E-03
  12 F= -.16253571E+04 E0= -.16253617E+04  d E =-.599236E-04
       N       E                     dE             d eps       ncg     rms          rms(c)
DAV:   1    -0.162535710592E+04   -0.18593E-04   -0.18897E-03 12360   0.574E-02    0.104E-02
DAV:   2    -0.162535711077E+04   -0.48539E-05   -0.15602E-05  6528   0.638E-03    0.577E-03
DAV:   3    -0.162535711562E+04   -0.48505E-05   -0.68667E-06  6464   0.445E-03    0.248E-03
DAV:   4    -0.162535711833E+04   -0.27059E-05   -0.29920E-06  6416   0.373E-03    0.116E-03
DAV:   5    -0.162535711951E+04   -0.11767E-05   -0.15633E-06  6416   0.240E-03
  13 F= -.16253571E+04 E0= -.16253618E+04  d E =-.323405E-04
       N       E                     dE             d eps       ncg     rms          rms(c)
DAV:   1    -0.162535715743E+04   -0.39104E-04   -0.19758E-03 12344   0.575E-02    0.897E-03
DAV:   2    -0.162535714949E+04    0.79388E-05   -0.15286E-05  7696   0.688E-03    0.534E-03
DAV:   3    -0.162535714658E+04    0.29106E-05   -0.57747E-06  6560   0.505E-03    0.355E-03
DAV:   4    -0.162535714269E+04    0.38957E-05   -0.32860E-06  6416   0.378E-03    0.118E-03
DAV:   5    -0.162535714178E+04    0.91141E-06   -0.17575E-06  6416   0.245E-03
  14 F= -.16253571E+04 E0= -.16253618E+04  d E =-.222703E-04
       N       E                     dE             d eps       ncg     rms          rms(c)
DAV:   1    -0.162535716675E+04   -0.24059E-04   -0.28348E-03 12344   0.674E-02    0.706E-03
DAV:   2    -0.162535716898E+04   -0.22325E-05   -0.17281E-05  7440   0.680E-03    0.509E-03
DAV:   3    -0.162535717005E+04   -0.10689E-05   -0.62268E-06  6456   0.423E-03    0.254E-03
DAV:   4    -0.162535717130E+04   -0.12529E-05   -0.35983E-06  6416   0.358E-03    0.647E-04
DAV:   5    -0.162535717126E+04    0.45406E-07   -0.18756E-06  6416   0.247E-03
  15 F= -.16253572E+04 E0= -.16253618E+04  d E =-.294791E-04
       N       E                     dE             d eps       ncg     rms          rms(c)
DAV:   1    -0.162535719747E+04   -0.26173E-04   -0.28009E-03 12344   0.674E-02    0.820E-03
DAV:   2    -0.162535719274E+04    0.47337E-05   -0.19058E-05  7888   0.719E-03    0.536E-03
DAV:   3    -0.162535719036E+04    0.23801E-05   -0.68473E-06  6528   0.464E-03    0.323E-03
DAV:   4    -0.162535718770E+04    0.26615E-05   -0.38021E-06  6416   0.380E-03    0.102E-03
DAV:   5    -0.162535718741E+04    0.28581E-06   -0.20971E-06  6416   0.264E-03
  16 F= -.16253572E+04 E0= -.16253618E+04  d E =-.161576E-04
       N       E                     dE             d eps       ncg     rms          rms(c)
DAV:   1    -0.162535719038E+04   -0.26782E-05   -0.15452E-04 12152   0.179E-02    0.515E-03
DAV:   2    -0.162535719373E+04   -0.33544E-05   -0.30563E-06  6416   0.279E-03    0.255E-03
DAV:   3    -0.162535719609E+04   -0.23555E-05   -0.14849E-06  6416   0.217E-03    0.137E-03
DAV:   4    -0.162535719765E+04   -0.15616E-05   -0.71287E-07  6416   0.165E-03    0.534E-04
DAV:   5    -0.162535719844E+04   -0.79128E-06   -0.38663E-07  6416   0.107E-03
  17 F= -.16253572E+04 E0= -.16253618E+04  d E =-.110268E-04
       N       E                     dE             d eps       ncg     rms          rms(c)
DAV:   1    -0.162535721508E+04   -0.17427E-04   -0.17093E-03 12344   0.523E-02    0.527E-03
DAV:   2    -0.162535721477E+04    0.30547E-06   -0.95539E-06  6448   0.505E-03    0.383E-03
DAV:   3    -0.162535721413E+04    0.64372E-06   -0.34352E-06  6416   0.289E-03    0.161E-03
DAV:   4    -0.162535721377E+04    0.35645E-06   -0.18121E-06  6416   0.241E-03    0.515E-04
DAV:   5    -0.162535721393E+04   -0.15868E-06   -0.95143E-07  6416   0.171E-03
  18 F= -.16253572E+04 E0= -.16253619E+04  d E =-.154890E-04
       N       E                     dE             d eps       ncg     rms          rms(c)
DAV:   1    -0.162535723764E+04   -0.23873E-04   -0.98327E-03 12228   0.126E-01    0.126E-02
DAV:   2    -0.162535724520E+04   -0.75577E-05   -0.81907E-05 14872   0.120E-02    0.955E-03
DAV:   3    -0.162535724594E+04   -0.74258E-06   -0.11008E-05  6750   0.521E-03    0.268E-03
DAV:   4    -0.162535724722E+04   -0.12733E-05   -0.28230E-06  6440   0.359E-03    0.115E-03
DAV:   5    -0.162535724700E+04    0.21783E-06   -0.10290E-06  6382   0.226E-03
  19 F= -.16253572E+04 E0= -.16253619E+04  d E =-.330704E-04
       N       E                     dE             d eps       ncg     rms          rms(c)
DAV:   1    -0.162535723965E+04    0.75710E-05   -0.30283E-03 12230   0.704E-02    0.864E-03
DAV:   2    -0.162535723333E+04    0.63133E-05   -0.15658E-05  6432   0.669E-03    0.557E-03
DAV:   3    -0.162535722848E+04    0.48553E-05   -0.55107E-06  6376   0.368E-03    0.216E-03
DAV:   4    -0.162535722664E+04    0.18391E-05   -0.23345E-06  6392   0.291E-03    0.916E-04
DAV:   5    -0.162535722649E+04    0.15113E-06   -0.11173E-06  6392   0.206E-03
  20 F= -.16253572E+04 E0= -.16253619E+04  d E =0.205120E-04
       N       E                     dE             d eps       ncg     rms          rms(c)
DAV:   1    -0.162535724182E+04   -0.15181E-04   -0.29545E-03 12230   0.689E-02    0.656E-03
DAV:   2    -0.162535724279E+04   -0.97011E-06   -0.13609E-05  6424   0.610E-03    0.478E-03
DAV:   3    -0.162535724306E+04   -0.27138E-06   -0.48128E-06  6343   0.317E-03    0.732E-04
DAV:   4    -0.162535724329E+04   -0.22616E-06   -0.16733E-06  6392   0.215E-03    0.560E-04
DAV:   5    -0.162535724330E+04   -0.12110E-07   -0.85823E-07  6392   0.162E-03
  21 F= -.16253572E+04 E0= -.16253619E+04  d E =-.168123E-04
       N       E                     dE             d eps       ncg     rms          rms(c)
DAV:   1    -0.162535725954E+04   -0.16256E-04   -0.78991E-03 12176   0.112E-01    0.109E-02
DAV:   2    -0.162535726331E+04   -0.37701E-05   -0.62386E-05 13176   0.107E-02    0.844E-03
DAV:   3    -0.162535726184E+04    0.14740E-05   -0.10807E-05  6573   0.522E-03    0.196E-03
DAV:   4    -0.162535726202E+04   -0.17593E-06   -0.26354E-06  6416   0.340E-03    0.126E-03
DAV:   5    -0.162535726201E+04    0.45716E-08   -0.10703E-06  6416   0.216E-03
  22 F= -.16253573E+04 E0= -.16253619E+04  d E =-.187113E-04
       N       E                     dE             d eps       ncg     rms          rms(c)
DAV:   1    -0.162535726772E+04   -0.57013E-05   -0.32700E-03 12214   0.723E-02    0.703E-03
DAV:   2    -0.162535726931E+04   -0.15949E-05   -0.18538E-05  6824   0.681E-03    0.517E-03
DAV:   3    -0.162535726987E+04   -0.56124E-06   -0.72408E-06  6415   0.383E-03    0.949E-04
DAV:   4    -0.162535727032E+04   -0.44759E-06   -0.31500E-06  6392   0.282E-03    0.633E-04
DAV:   5    -0.162535727040E+04   -0.80815E-07   -0.17304E-06  6392   0.221E-03
  23 F= -.16253573E+04 E0= -.16253619E+04  d E =-.839044E-05
