       N       E                     dE             d eps       ncg     rms          rms(c)
DAV:   1     0.212086347809E+04    0.21209E+04   -0.28612E+05 11508   0.143E+03
DAV:   2    -0.119519034550E+04   -0.33161E+04   -0.31828E+04 13326   0.288E+02
DAV:   3    -0.161289833857E+04   -0.41771E+03   -0.38371E+03 17824   0.818E+01
DAV:   4    -0.163727481065E+04   -0.24376E+02   -0.22565E+02 16168   0.169E+01
DAV:   5    -0.163833833238E+04   -0.10635E+01   -0.10434E+01 17504   0.422E+00    0.404E+01
DAV:   6    -0.159728318229E+04    0.41055E+02   -0.12840E+02 17712   0.154E+01    0.228E+01
DAV:   7    -0.158582708263E+04    0.11456E+02   -0.97596E+01 18000   0.159E+01    0.172E+01
DAV:   8    -0.157639561970E+04    0.94315E+01   -0.57469E+01 17192   0.121E+01    0.103E+01
DAV:   9    -0.157064390839E+04    0.57517E+01   -0.24236E+01 16968   0.813E+00    0.310E+00
DAV:  10    -0.157052070477E+04    0.12320E+00   -0.50146E+00 16504   0.308E+00    0.155E+00
DAV:  11    -0.157052102530E+04   -0.32054E-03   -0.64898E-01 15536   0.116E+00    0.111E+00
DAV:  12    -0.157050325538E+04    0.17770E-01   -0.21239E-01 15696   0.737E-01    0.726E-01
DAV:  13    -0.157048547268E+04    0.17783E-01   -0.74710E-02 15616   0.466E-01    0.393E-01
DAV:  14    -0.157048065754E+04    0.48151E-02   -0.26050E-02 16176   0.231E-01    0.192E-01
DAV:  15    -0.157047956864E+04    0.10889E-02   -0.87643E-03 16568   0.148E-01    0.947E-02
DAV:  16    -0.157047942425E+04    0.14439E-03   -0.29510E-03 15888   0.801E-02    0.472E-02
DAV:  17    -0.157047941660E+04    0.76548E-05   -0.82408E-04 14904   0.439E-02    0.292E-02
DAV:  18    -0.157047940091E+04    0.15687E-04   -0.23958E-04 16120   0.264E-02    0.206E-02
DAV:  19    -0.157047937327E+04    0.27641E-04   -0.87799E-05 13416   0.156E-02    0.945E-03
DAV:  20    -0.157047936712E+04    0.61487E-05   -0.23964E-05  7424   0.817E-03
   1 F= -.15704794E+04 E0= -.15704816E+04  d E =-.157048E+04
       N       E                     dE             d eps       ncg     rms          rms(c)
DAV:   1    -0.157593394306E+04   -0.54546E+01   -0.18400E+03 11508   0.652E+01    0.237E+01
DAV:   2    -0.155470759627E+04    0.21226E+02   -0.12587E+02 18208   0.150E+01    0.144E+01
DAV:   3    -0.154772315182E+04    0.69844E+01   -0.68163E+01 19424   0.114E+01    0.989E+00
DAV:   4    -0.154451407036E+04    0.32091E+01   -0.22905E+01 19416   0.724E+00    0.726E+00
DAV:   5    -0.154203549003E+04    0.24786E+01   -0.14657E+01 18232   0.506E+00    0.282E+00
DAV:   6    -0.154179843643E+04    0.23705E+00   -0.35096E+00 17176   0.249E+00    0.159E+00
DAV:   7    -0.154176842977E+04    0.30007E-01   -0.56798E-01 15768   0.112E+00    0.114E+00
DAV:   8    -0.154175187794E+04    0.16552E-01   -0.18899E-01 17560   0.527E-01    0.601E-01
DAV:   9    -0.154175882388E+04   -0.69459E-02   -0.11534E-01 17952   0.353E-01    0.350E-01
DAV:  10    -0.154176018654E+04   -0.13627E-02   -0.26510E-02 17192   0.242E-01    0.285E-01
DAV:  11    -0.154175717240E+04    0.30141E-02   -0.12724E-02 18808   0.160E-01    0.130E-01
DAV:  12    -0.154175702164E+04    0.15077E-03   -0.69993E-03 18456   0.947E-02    0.708E-02
DAV:  13    -0.154175737886E+04   -0.35722E-03   -0.13441E-03 16560   0.464E-02    0.455E-02
DAV:  14    -0.154175746124E+04   -0.82386E-04   -0.58450E-04 18576   0.333E-02    0.265E-02
DAV:  15    -0.154175745873E+04    0.25131E-05   -0.17509E-04 16136   0.187E-02    0.170E-02
DAV:  16    -0.154175745615E+04    0.25763E-05   -0.49555E-05  9664   0.101E-02
   2 F= -.15417575E+04 E0= -.15417637E+04  d E =0.287219E+02
       N       E                     dE             d eps       ncg     rms          rms(c)
DAV:   1    -0.159336844746E+04   -0.51611E+02   -0.88412E+02 11508   0.499E+01    0.165E+01
DAV:   2    -0.158186247004E+04    0.11506E+02   -0.34956E+01 16914   0.938E+00    0.807E+00
DAV:   3    -0.157979458542E+04    0.20679E+01   -0.18939E+01 16912   0.653E+00    0.616E+00
DAV:   4    -0.157825182912E+04    0.15428E+01   -0.78280E+00 17592   0.490E+00    0.380E+00
DAV:   5    -0.157749494189E+04    0.75689E+00   -0.42210E+00 17000   0.330E+00    0.130E+00
DAV:   6    -0.157745685696E+04    0.38085E-01   -0.98160E-01 15440   0.147E+00    0.719E-01
DAV:   7    -0.157746371261E+04   -0.68557E-02   -0.14407E-01 14912   0.561E-01    0.535E-01
DAV:   8    -0.157746638420E+04   -0.26716E-02   -0.34510E-02 15816   0.266E-01    0.320E-01
DAV:   9    -0.157747615863E+04   -0.97744E-02   -0.37268E-02 16416   0.226E-01    0.209E-01
DAV:  10    -0.157747613881E+04    0.19819E-04   -0.67471E-03 15816   0.143E-01    0.129E-01
DAV:  11    -0.157747580545E+04    0.33336E-03   -0.29170E-03 16904   0.769E-02    0.618E-02
DAV:  12    -0.157747604613E+04   -0.24068E-03   -0.20101E-03 17264   0.563E-02    0.476E-02
DAV:  13    -0.157747623142E+04   -0.18529E-03   -0.39623E-04 14488   0.285E-02    0.326E-02
DAV:  14    -0.157747622460E+04    0.68202E-05   -0.12664E-04 14160   0.167E-02    0.176E-02
DAV:  15    -0.157747621559E+04    0.90116E-05   -0.58589E-05 10816   0.101E-02
   3 F= -.15774762E+04 E0= -.15774620E+04  d E =-.357188E+02
       N       E                     dE             d eps       ncg     rms          rms(c)
DAV:   1    -0.157765173035E+04   -0.17551E+00   -0.15958E+01 11508   0.537E+00    0.801E-01
DAV:   2    -0.157765091991E+04    0.81044E-03   -0.27098E-01 16656   0.668E-01    0.516E-01
DAV:   3    -0.157764543848E+04    0.54814E-02   -0.65794E-02 18760   0.423E-01    0.398E-01
DAV:   4    -0.157763978025E+04    0.56582E-02   -0.22974E-02 18384   0.249E-01    0.229E-01
DAV:   5    -0.157763818059E+04    0.15997E-02   -0.12756E-02 15680   0.165E-01    0.951E-02
DAV:   6    -0.157763805349E+04    0.12710E-03   -0.32526E-03 15416   0.915E-02    0.598E-02
DAV:   7    -0.157763799303E+04    0.60457E-04   -0.80985E-04 16400   0.476E-02    0.422E-02
DAV:   8    -0.157763795765E+04    0.35380E-04   -0.28278E-04 16312   0.245E-02    0.239E-02
DAV:   9    -0.157763796524E+04   -0.75949E-05   -0.12320E-04 14600   0.164E-02    0.160E-02
DAV:  10    -0.157763795881E+04    0.64371E-05   -0.41743E-05  9744   0.122E-02
   4 F= -.15776380E+04 E0= -.15776264E+04  d E =-.161743E+00
       N       E                     dE             d eps       ncg     rms          rms(c)
DAV:   1    -0.157766695223E+04   -0.28987E-01   -0.29036E+00 11511   0.225E+00    0.340E-01
DAV:   2    -0.157766998713E+04   -0.30349E-02   -0.69199E-02 17904   0.400E-01    0.297E-01
DAV:   3    -0.157766515377E+04    0.48334E-02   -0.24432E-02 18608   0.262E-01    0.165E-01
DAV:   4    -0.157766430321E+04    0.85056E-03   -0.44839E-03 18232   0.104E-01    0.112E-01
DAV:   5    -0.157766387518E+04    0.42802E-03   -0.22894E-03 15800   0.708E-02    0.545E-02
DAV:   6    -0.157766378702E+04    0.88160E-04   -0.81800E-04 15440   0.455E-02    0.305E-02
DAV:   7    -0.157766375828E+04    0.28747E-04   -0.21665E-04 15752   0.249E-02    0.190E-02
DAV:   8    -0.157766375672E+04    0.15583E-05   -0.54776E-05 11440   0.112E-02
   5 F= -.15776638E+04 E0= -.15776514E+04  d E =-.257979E-01
       N       E                     dE             d eps       ncg     rms          rms(c)
DAV:   1    -0.157767253854E+04   -0.87803E-02   -0.83911E-01 11526   0.124E+00    0.198E-01
DAV:   2    -0.157767251885E+04    0.19694E-04   -0.13316E-02 16872   0.165E-01    0.140E-01
DAV:   3    -0.157767189081E+04    0.62804E-03   -0.44443E-03 18600   0.115E-01    0.987E-02
DAV:   4    -0.157767158685E+04    0.30396E-03   -0.13605E-03 16296   0.580E-02    0.499E-02
DAV:   5    -0.157767155885E+04    0.27998E-04   -0.69995E-04 15416   0.411E-02    0.232E-02
DAV:   6    -0.157767155617E+04    0.26775E-05   -0.19267E-04 15544   0.232E-02    0.157E-02
DAV:   7    -0.157767154885E+04    0.73233E-05   -0.43080E-05  9624   0.122E-02
   6 F= -.15776715E+04 E0= -.15776599E+04  d E =-.779213E-02
       N       E                     dE             d eps       ncg     rms          rms(c)
DAV:   1    -0.157767787141E+04   -0.63152E-02   -0.30667E-01 11526   0.764E-01    0.164E-01
DAV:   2    -0.157767755906E+04    0.31234E-03   -0.92648E-03 17912   0.155E-01    0.123E-01
DAV:   3    -0.157767675212E+04    0.80695E-03   -0.43263E-03 18712   0.110E-01    0.736E-02
DAV:   4    -0.157767651110E+04    0.24101E-03   -0.98732E-04 17080   0.490E-02    0.459E-02
DAV:   5    -0.157767638383E+04    0.12727E-03   -0.48588E-04 15576   0.344E-02    0.203E-02
DAV:   6    -0.157767635708E+04    0.26748E-04   -0.14263E-04 14528   0.197E-02    0.117E-02
DAV:   7    -0.157767635276E+04    0.43237E-05   -0.27791E-05  7856   0.991E-03
   7 F= -.15776764E+04 E0= -.15776642E+04  d E =-.480391E-02
       N       E                     dE             d eps       ncg     rms          rms(c)
DAV:   1    -0.157767888582E+04   -0.25287E-02   -0.25970E-01 11526   0.669E-01    0.811E-02
DAV:   2    -0.157767930218E+04   -0.41636E-03   -0.41618E-03 17496   0.100E-01    0.814E-02
DAV:   3    -0.157767895677E+04    0.34541E-03   -0.13958E-03 18120   0.646E-02    0.444E-02
DAV:   4    -0.157767893409E+04    0.22679E-04   -0.26508E-04 16568   0.245E-02    0.277E-02
DAV:   5    -0.157767892849E+04    0.55957E-05   -0.15295E-04 14736   0.189E-02    0.101E-02
DAV:   6    -0.157767892888E+04   -0.38487E-06   -0.32637E-05  8552   0.110E-02
   8 F= -.15776789E+04 E0= -.15776670E+04  d E =-.257611E-02
       N       E                     dE             d eps       ncg     rms          rms(c)
DAV:   1    -0.157768017216E+04   -0.12437E-02   -0.10912E-01 11547   0.439E-01    0.684E-02
DAV:   2    -0.157768025382E+04   -0.81662E-04   -0.23120E-03 17944   0.783E-02    0.623E-02
DAV:   3    -0.157768002667E+04    0.22715E-03   -0.96795E-04 18552   0.533E-02    0.333E-02
DAV:   4    -0.157767998120E+04    0.45469E-04   -0.17672E-04 16248   0.201E-02    0.218E-02
DAV:   5    -0.157767994874E+04    0.32463E-04   -0.88527E-05 13648   0.151E-02    0.963E-03
DAV:   6    -0.157767994108E+04    0.76533E-05   -0.23166E-05  7464   0.944E-03
   9 F= -.15776799E+04 E0= -.15776679E+04  d E =-.101221E-02
       N       E                     dE             d eps       ncg     rms          rms(c)
DAV:   1    -0.157768053897E+04   -0.59023E-03   -0.36659E-02 11556   0.259E-01    0.435E-02
DAV:   2    -0.157768055021E+04   -0.11240E-04   -0.51444E-04 16872   0.331E-02    0.293E-02
DAV:   3    -0.157768053310E+04    0.17110E-04   -0.18126E-04 17096   0.234E-02    0.213E-02
DAV:   4    -0.157768053156E+04    0.15348E-05   -0.56805E-05 11456   0.124E-02    0.992E-03
DAV:   5    -0.157768053957E+04   -0.80058E-05   -0.20923E-05  7024   0.861E-03
  10 F= -.15776805E+04 E0= -.15776686E+04  d E =-.598483E-03
       N       E                     dE             d eps       ncg     rms          rms(c)
DAV:   1    -0.157768106806E+04   -0.53650E-03   -0.43721E-02 11532   0.274E-01    0.359E-02
DAV:   2    -0.157768110727E+04   -0.39215E-04   -0.72428E-04 17944   0.428E-02    0.347E-02
DAV:   3    -0.157768103939E+04    0.67885E-04   -0.26580E-04 17815   0.285E-02    0.190E-02
DAV:   4    -0.157768102470E+04    0.14692E-04   -0.39397E-05  9304   0.104E-02    0.122E-02
DAV:   5    -0.157768101297E+04    0.11726E-04   -0.20431E-05  6888   0.847E-03    0.462E-03
DAV:   6    -0.157768101104E+04    0.19342E-05   -0.68632E-06  6480   0.586E-03
  11 F= -.15776810E+04 E0= -.15776690E+04  d E =-.471468E-03
       N       E                     dE             d eps       ncg     rms          rms(c)
DAV:   1    -0.157768134121E+04   -0.32824E-03   -0.36850E-02 11535   0.251E-01    0.267E-02
DAV:   2    -0.157768138559E+04   -0.44381E-04   -0.41454E-04 17288   0.294E-02    0.243E-02
DAV:   3    -0.157768136387E+04    0.21719E-04   -0.95831E-05 14714   0.180E-02    0.158E-02
DAV:   4    -0.157768136636E+04   -0.24933E-05   -0.25623E-05  7200   0.841E-03    0.684E-03
DAV:   5    -0.157768136956E+04   -0.32019E-05   -0.98698E-06  6608   0.672E-03
  12 F= -.15776814E+04 E0= -.15776694E+04  d E =-.358528E-03
       N       E                     dE             d eps       ncg     rms          rms(c)
DAV:   1    -0.157768155387E+04   -0.18751E-03   -0.93356E-03 11556   0.130E-01    0.214E-02
DAV:   2    -0.157768153643E+04    0.17442E-04   -0.15060E-04 16168   0.191E-02    0.157E-02
DAV:   3    -0.157768152209E+04    0.14336E-04   -0.52051E-05 10848   0.138E-02    0.999E-03
DAV:   4    -0.157768151284E+04    0.92586E-05   -0.14758E-05  6696   0.732E-03    0.587E-03
DAV:   5    -0.157768150553E+04    0.73048E-05   -0.74742E-06  6192   0.538E-03
  13 F= -.15776815E+04 E0= -.15776695E+04  d E =-.135967E-03
       N       E                     dE             d eps       ncg     rms          rms(c)
DAV:   1    -0.157768168805E+04   -0.17521E-03   -0.15783E-02 11547   0.164E-01    0.178E-02
DAV:   2    -0.157768170677E+04   -0.18715E-04   -0.16050E-04 16736   0.178E-02    0.152E-02
DAV:   3    -0.157768170006E+04    0.67021E-05   -0.24760E-05  8365   0.106E-02    0.106E-02
DAV:   4    -0.157768170421E+04   -0.41512E-05   -0.16195E-05  6432   0.650E-03    0.415E-03
DAV:   5    -0.157768170633E+04   -0.21135E-05   -0.62256E-06  6272   0.550E-03
  14 F= -.15776817E+04 E0= -.15776697E+04  d E =-.200797E-03
       N       E                     dE             d eps       ncg     rms          rms(c)
DAV:   1    -0.157768188635E+04   -0.18214E-03   -0.18499E-02 11532   0.177E-01    0.180E-02
DAV:   2    -0.157768189493E+04   -0.85816E-05   -0.18947E-04 17168   0.200E-02    0.161E-02
DAV:   3    -0.157768188381E+04    0.11117E-04   -0.34423E-05  9082   0.121E-02    0.109E-02
DAV:   4    -0.157768187840E+04    0.54132E-05   -0.15419E-05  6496   0.665E-03    0.564E-03
DAV:   5    -0.157768187513E+04    0.32671E-05   -0.74368E-06  6192   0.566E-03
  15 F= -.15776819E+04 E0= -.15776699E+04  d E =-.168806E-03
       N       E                     dE             d eps       ncg     rms          rms(c)
DAV:   1    -0.157768196708E+04   -0.88682E-04   -0.70154E-03 11550   0.110E-01    0.130E-02
DAV:   2    -0.157768197684E+04   -0.97616E-05   -0.63785E-05 12608   0.115E-02    0.934E-03
DAV:   3    -0.157768197704E+04   -0.19674E-06   -0.13711E-05  7189   0.705E-03    0.695E-03
DAV:   4    -0.157768198101E+04   -0.39645E-05   -0.62205E-06  6127   0.445E-03    0.309E-03
DAV:   5    -0.157768198356E+04   -0.25563E-05   -0.29467E-06  6015   0.347E-03
  16 F= -.15776820E+04 E0= -.15776700E+04  d E =-.108428E-03
       N       E                     dE             d eps       ncg     rms          rms(c)
DAV:   1    -0.157768208685E+04   -0.10584E-03   -0.67355E-03 11544   0.107E-01    0.127E-02
DAV:   2    -0.157768208181E+04    0.50370E-05   -0.65935E-05 12456   0.116E-02    0.931E-03
DAV:   3    -0.157768207834E+04    0.34763E-05   -0.14206E-05  7253   0.736E-03    0.688E-03
DAV:   4    -0.157768207395E+04    0.43857E-05   -0.58634E-06  6063   0.450E-03    0.375E-03
DAV:   5    -0.157768207075E+04    0.31984E-05   -0.32108E-06  6006   0.357E-03
  17 F= -.15776821E+04 E0= -.15776701E+04  d E =-.871899E-04
       N       E                     dE             d eps       ncg     rms          rms(c)
DAV:   1    -0.157768216706E+04   -0.93112E-04   -0.93618E-03 11532   0.126E-01    0.121E-02
DAV:   2    -0.157768217574E+04   -0.86788E-05   -0.82216E-05 14376   0.116E-02    0.952E-03
DAV:   3    -0.157768217534E+04    0.39685E-06   -0.87895E-06  6626   0.575E-03    0.753E-03
DAV:   4    -0.157768217729E+04   -0.19496E-05   -0.65786E-06  6078   0.431E-03    0.199E-03
DAV:   5    -0.157768217790E+04   -0.61111E-06   -0.21525E-06  6006   0.320E-03
  18 F= -.15776822E+04 E0= -.15776702E+04  d E =-.107153E-03
       N       E                     dE             d eps       ncg     rms          rms(c)
DAV:   1    -0.157768226811E+04   -0.90814E-04   -0.83083E-03 11538   0.119E-01    0.122E-02
DAV:   2    -0.157768226574E+04    0.23695E-05   -0.73354E-05 13368   0.115E-02    0.896E-03
DAV:   3    -0.157768226329E+04    0.24420E-05   -0.11194E-05  6805   0.627E-03    0.690E-03
DAV:   4    -0.157768225920E+04    0.40903E-05   -0.49940E-06  6046   0.429E-03    0.339E-03
DAV:   5    -0.157768225679E+04    0.24159E-05   -0.28115E-06  5964   0.334E-03
  19 F= -.15776823E+04 E0= -.15776703E+04  d E =-.788847E-04
       N       E                     dE             d eps       ncg     rms          rms(c)
DAV:   1    -0.157768229856E+04   -0.39358E-04   -0.24024E-03 11544   0.646E-02    0.811E-03
DAV:   2    -0.157768230342E+04   -0.48553E-05   -0.16595E-05  6292   0.645E-03    0.522E-03
DAV:   3    -0.157768230520E+04   -0.17795E-05   -0.63658E-06  6046   0.456E-03    0.400E-03
DAV:   4    -0.157768230765E+04   -0.24483E-05   -0.35448E-06  5907   0.341E-03    0.182E-03
DAV:   5    -0.157768230918E+04   -0.15365E-05   -0.20155E-06  5883   0.241E-03
  20 F= -.15776823E+04 E0= -.15776704E+04  d E =-.523935E-04
       N       E                     dE             d eps       ncg     rms          rms(c)
DAV:   1    -0.157768237799E+04   -0.70342E-04   -0.59024E-03 11532   0.997E-02    0.101E-02
DAV:   2    -0.157768237690E+04    0.10894E-05   -0.50548E-05 11184   0.944E-03    0.753E-03
DAV:   3    -0.157768237551E+04    0.13911E-05   -0.87975E-06  6458   0.541E-03    0.560E-03
DAV:   4    -0.157768237271E+04    0.27938E-05   -0.40659E-06  5916   0.393E-03    0.241E-03
DAV:   5    -0.157768237153E+04    0.11813E-05   -0.21296E-06  5856   0.293E-03
  21 F= -.15776824E+04 E0= -.15776704E+04  d E =-.623498E-04
       N       E                     dE             d eps       ncg     rms          rms(c)
DAV:   1    -0.157768241938E+04   -0.46662E-04   -0.41411E-03 11538   0.836E-02    0.818E-03
DAV:   2    -0.157768242327E+04   -0.38989E-05   -0.24312E-05  7736   0.753E-03    0.580E-03
DAV:   3    -0.157768242508E+04   -0.18056E-05   -0.89407E-06  6148   0.456E-03    0.381E-03
DAV:   4    -0.157768242680E+04   -0.17224E-05   -0.49726E-06  5859   0.386E-03    0.139E-03
DAV:   5    -0.157768242744E+04   -0.63874E-06   -0.27473E-06  5859   0.274E-03
  22 F= -.15776824E+04 E0= -.15776705E+04  d E =-.559093E-04
       N       E                     dE             d eps       ncg     rms          rms(c)
DAV:   1    -0.157768247626E+04   -0.49461E-04   -0.36363E-03 11538   0.785E-02    0.876E-03
DAV:   2    -0.157768247182E+04    0.44429E-05   -0.26340E-05  7982   0.784E-03    0.584E-03
DAV:   3    -0.157768247010E+04    0.17179E-05   -0.89351E-06  6141   0.515E-03    0.404E-03
DAV:   4    -0.157768246782E+04    0.22821E-05   -0.46473E-06  5835   0.410E-03    0.214E-03
DAV:   5    -0.157768246666E+04    0.11654E-05   -0.28282E-06  5832   0.308E-03
  23 F= -.15776825E+04 E0= -.15776705E+04  d E =-.392140E-04
       N       E                     dE             d eps       ncg     rms          rms(c)
DAV:   1    -0.157768249386E+04   -0.26035E-04   -0.16771E-03 11544   0.534E-02    0.625E-03
DAV:   2    -0.157768249730E+04   -0.34442E-05   -0.12295E-05  5955   0.545E-03    0.417E-03
DAV:   3    -0.157768249875E+04   -0.14506E-05   -0.50143E-06  5851   0.375E-03    0.308E-03
DAV:   4    -0.157768250035E+04   -0.15962E-05   -0.27586E-06  5835   0.290E-03    0.148E-03
DAV:   5    -0.157768250141E+04   -0.10652E-05   -0.16368E-06  5835   0.219E-03
  24 F= -.15776825E+04 E0= -.15776706E+04  d E =-.347565E-04
       N       E                     dE             d eps       ncg     rms          rms(c)
DAV:   1    -0.157768254365E+04   -0.43305E-04   -0.37934E-03 11532   0.798E-02    0.763E-03
DAV:   2    -0.157768254298E+04    0.66845E-06   -0.22727E-05  7976   0.736E-03    0.555E-03
DAV:   3    -0.157768254229E+04    0.69203E-06   -0.83030E-06  6137   0.451E-03    0.341E-03
DAV:   4    -0.157768254130E+04    0.99171E-06   -0.47388E-06  5835   0.392E-03    0.131E-03
DAV:   5    -0.157768254127E+04    0.24877E-07   -0.26535E-06  5832   0.290E-03
  25 F= -.15776825E+04 E0= -.15776706E+04  d E =-.398625E-04
       N       E                     dE             d eps       ncg     rms          rms(c)
DAV:   1    -0.157768258521E+04   -0.43912E-04   -0.68197E-03 11526   0.107E-01    0.106E-02
DAV:   2    -0.157768259261E+04   -0.73943E-05   -0.62967E-05 12240   0.996E-03    0.790E-03
DAV:   3    -0.157768259381E+04   -0.12017E-05   -0.81247E-06  6306   0.507E-03    0.548E-03
DAV:   4    -0.157768259559E+04   -0.17845E-05   -0.37363E-06  5892   0.401E-03    0.236E-03
DAV:   5    -0.157768259659E+04   -0.99658E-06   -0.18576E-06  5841   0.288E-03
  26 F= -.15776826E+04 E0= -.15776707E+04  d E =-.553142E-04
       N       E                     dE             d eps       ncg     rms          rms(c)
DAV:   1    -0.157768260130E+04   -0.57131E-05   -0.89275E-05 11292   0.149E-02    0.465E-03
DAV:   2    -0.157768259608E+04    0.52234E-05   -0.21403E-06  5826   0.274E-03    0.233E-03
DAV:   3    -0.157768259449E+04    0.15864E-05   -0.10270E-06  5826   0.245E-03    0.185E-03
DAV:   4    -0.157768259285E+04    0.16490E-05   -0.46019E-07  5826   0.158E-03    0.852E-04
DAV:   5    -0.157768259167E+04    0.11799E-05   -0.23249E-07  5826   0.881E-04
  27 F= -.15776826E+04 E0= -.15776707E+04  d E =0.492217E-05
       N       E                     dE             d eps       ncg     rms          rms(c)
DAV:   1    -0.157768262507E+04   -0.32229E-04   -0.36258E-03 11526   0.781E-02    0.702E-03
DAV:   2    -0.157768262583E+04   -0.75640E-06   -0.18606E-05  6580   0.672E-03    0.520E-03
DAV:   3    -0.157768262590E+04   -0.64279E-07   -0.65184E-06  5915   0.385E-03    0.309E-03
DAV:   4    -0.157768262582E+04    0.73067E-07   -0.37899E-06  5826   0.339E-03    0.929E-04
DAV:   5    -0.157768262596E+04   -0.13474E-06   -0.18718E-06  5820   0.226E-03
  28 F= -.15776826E+04 E0= -.15776707E+04  d E =-.342911E-04
       N       E                     dE             d eps       ncg     rms          rms(c)
DAV:   1    -0.157768273617E+04   -0.11035E-03   -0.10191E-01 11508   0.414E-01    0.372E-02
DAV:   2    -0.157768278928E+04   -0.53104E-04   -0.84909E-04 16864   0.357E-02    0.288E-02
DAV:   3    -0.157768277879E+04    0.10489E-04   -0.71867E-05 12613   0.133E-02    0.183E-02
DAV:   4    -0.157768276748E+04    0.11306E-04   -0.47942E-05 10104   0.128E-02    0.612E-03
DAV:   5    -0.157768276581E+04    0.16756E-05   -0.12082E-05  6829   0.727E-03
  29 F= -.15776828E+04 E0= -.15776708E+04  d E =-.139849E-03
       N       E                     dE             d eps       ncg     rms          rms(c)
DAV:   1    -0.157768279230E+04   -0.24820E-04   -0.13912E-02 11520   0.153E-01    0.131E-02
DAV:   2    -0.157768279984E+04   -0.75345E-05   -0.12307E-04 15864   0.136E-02    0.104E-02
DAV:   3    -0.157768279833E+04    0.15103E-05   -0.68297E-06  6653   0.522E-03    0.827E-03
DAV:   4    -0.157768279545E+04    0.28751E-05   -0.68985E-06  6247   0.455E-03    0.236E-03
DAV:   5    -0.157768279508E+04    0.37235E-06   -0.22353E-06  6103   0.333E-03
  30 F= -.15776828E+04 E0= -.15776709E+04  d E =-.292726E-04
       N       E                     dE             d eps       ncg     rms          rms(c)
DAV:   1    -0.157768278666E+04    0.87858E-05   -0.85041E-04 11532   0.383E-02    0.491E-03
DAV:   2    -0.157768278901E+04   -0.23464E-05   -0.46951E-06  5835   0.384E-03    0.336E-03
DAV:   3    -0.157768278950E+04   -0.49284E-06   -0.16458E-06  5832   0.277E-03    0.255E-03
DAV:   4    -0.157768279095E+04   -0.14461E-05   -0.93371E-07  5826   0.194E-03    0.110E-03
DAV:   5    -0.157768279169E+04   -0.73645E-06   -0.50881E-07  5826   0.137E-03
  31 F= -.15776828E+04 E0= -.15776709E+04  d E =0.339163E-05
       N       E                     dE             d eps       ncg     rms          rms(c)
DAV:   1    -0.157768280250E+04   -0.11553E-04   -0.16253E-03 11532   0.524E-02    0.481E-03
DAV:   2    -0.157768280159E+04    0.91595E-06   -0.77471E-06  5826   0.446E-03    0.348E-03
DAV:   3    -0.157768280102E+04    0.57171E-06   -0.24275E-06  5820   0.248E-03    0.229E-03
DAV:   4    -0.157768280021E+04    0.80855E-06   -0.14157E-06  5817   0.216E-03    0.854E-04
DAV:   5    -0.157768280007E+04    0.13748E-06   -0.73122E-07  5817   0.152E-03
  32 F= -.15776828E+04 E0= -.15776709E+04  d E =-.838320E-05
       N       E                     dE             d eps       ncg     rms          rms(c)
DAV:   1    -0.157768280659E+04   -0.63827E-05   -0.20061E-03 11520   0.580E-02    0.533E-03
DAV:   2    -0.157768280807E+04   -0.14755E-05   -0.11563E-05  6163   0.528E-03    0.396E-03
DAV:   3    -0.157768280857E+04   -0.49949E-06   -0.41469E-06  5853   0.321E-03    0.278E-03
DAV:   4    -0.157768280931E+04   -0.74464E-06   -0.25774E-06  5826   0.277E-03    0.685E-04
DAV:   5    -0.157768280942E+04   -0.10894E-06   -0.13047E-06  5826   0.199E-03
  33 F= -.15776828E+04 E0= -.15776709E+04  d E =-.934878E-05
       N       E                     dE             d eps       ncg     rms          rms(c)
DAV:   1    -0.157768280876E+04    0.54671E-06   -0.43898E-04 11532   0.278E-02    0.366E-03
DAV:   2    -0.157768280590E+04    0.28653E-05   -0.22176E-06  5817   0.255E-03    0.222E-03
DAV:   3    -0.157768280480E+04    0.11024E-05   -0.70953E-07  5808   0.164E-03    0.158E-03
DAV:   4    -0.157768280370E+04    0.10951E-05   -0.31658E-07  5817   0.123E-03    0.847E-04
DAV:   5    -0.157768280300E+04    0.70201E-06   -0.18047E-07  5817   0.828E-04
  34 F= -.15776828E+04 E0= -.15776709E+04  d E =0.642040E-05
       N       E                     dE             d eps       ncg     rms          rms(c)
DAV:   1    -0.157768280738E+04   -0.36837E-05   -0.81710E-04 11532   0.371E-02    0.333E-03
DAV:   2    -0.157768280816E+04   -0.77616E-06   -0.39946E-06  5817   0.316E-03    0.246E-03
DAV:   3    -0.157768280843E+04   -0.27066E-06   -0.12845E-06  5817   0.176E-03    0.181E-03
DAV:   4    -0.157768280892E+04   -0.48561E-06   -0.81704E-07  5817   0.151E-03    0.427E-04
DAV:   5    -0.157768280898E+04   -0.66613E-07   -0.37791E-07  5817   0.101E-03
  35 F= -.15776828E+04 E0= -.15776709E+04  d E =-.598473E-05
       N       E                     dE             d eps       ncg     rms          rms(c)
DAV:   1    -0.157768281602E+04   -0.70990E-05   -0.21847E-03 11520   0.605E-02    0.547E-03
DAV:   2    -0.157768281606E+04   -0.47254E-07   -0.12044E-05  6364   0.537E-03    0.405E-03
DAV:   3    -0.157768281578E+04    0.28264E-06   -0.44487E-06  5910   0.316E-03    0.220E-03
DAV:   4    -0.157768281550E+04    0.27616E-06   -0.24692E-06  5826   0.277E-03    0.799E-04
DAV:   5    -0.157768281559E+04   -0.82819E-07   -0.13187E-06  5826   0.199E-03
  36 F= -.15776828E+04 E0= -.15776709E+04  d E =-.660363E-05
       N       E                     dE             d eps       ncg     rms          rms(c)
DAV:   1    -0.157768281189E+04    0.36170E-05   -0.99806E-05 11266   0.146E-02    0.351E-03
DAV:   2    -0.157768281444E+04   -0.25509E-05   -0.14245E-06  5799   0.223E-03    0.179E-03
DAV:   3    -0.157768281544E+04   -0.10008E-05   -0.64336E-07  5799   0.190E-03    0.133E-03
DAV:   4    -0.157768281637E+04   -0.93053E-06   -0.25636E-07  5799   0.121E-03    0.702E-04
DAV:   5    -0.157768281716E+04   -0.79178E-06   -0.14419E-07  5799   0.732E-04
  37 F= -.15776828E+04 E0= -.15776709E+04  d E =-.157417E-05
       N       E                     dE             d eps       ncg     rms          rms(c)
DAV:   1    -0.157768282258E+04   -0.62085E-05   -0.31213E-04 11431   0.232E-02    0.284E-03
DAV:   2    -0.157768282069E+04    0.18921E-05   -0.20377E-06  5799   0.232E-03    0.177E-03
DAV:   3    -0.157768282001E+04    0.67142E-06   -0.75911E-07  5796   0.155E-03    0.130E-03
DAV:   4    -0.157768281931E+04    0.70892E-06   -0.37807E-07  5799   0.115E-03    0.746E-04
DAV:   5    -0.157768281875E+04    0.55848E-06   -0.22697E-07  5799   0.827E-04
  38 F= -.15776828E+04 E0= -.15776709E+04  d E =-.158583E-05
       N       E                     dE             d eps       ncg     rms          rms(c)
DAV:   1    -0.157768282063E+04   -0.13216E-05   -0.24479E-04 11326   0.203E-02    0.193E-03
DAV:   2    -0.157768282064E+04   -0.17255E-07   -0.15988E-06  5799   0.197E-03    0.144E-03
DAV:   3    -0.157768282065E+04   -0.95138E-08   -0.58329E-07  5793   0.122E-03    0.106E-03
DAV:   4    -0.157768282060E+04    0.53554E-07   -0.38219E-07  5799   0.102E-03    0.228E-04
DAV:   5    -0.157768282062E+04   -0.21164E-07   -0.18595E-07  5799   0.732E-04
  39 F= -.15776828E+04 E0= -.15776709E+04  d E =-.187447E-05
       N       E                     dE             d eps       ncg     rms          rms(c)
DAV:   1    -0.157768282605E+04   -0.54528E-05   -0.55494E-03 11508   0.965E-02    0.869E-03
DAV:   2    -0.157768282795E+04   -0.18989E-05   -0.32225E-05  8800   0.840E-03    0.651E-03
DAV:   3    -0.157768282825E+04   -0.29867E-06   -0.93904E-06  6201   0.477E-03    0.428E-03
DAV:   4    -0.157768282822E+04    0.29787E-07   -0.55422E-06  5892   0.411E-03    0.112E-03
DAV:   5    -0.157768282838E+04   -0.15972E-06   -0.25593E-06  5880   0.269E-03
  40 F= -.15776828E+04 E0= -.15776709E+04  d E =-.775912E-05
