       N       E                     dE             d eps       ncg     rms          rms(c)
DAV:   1     0.212045918752E+04    0.21205E+04   -0.28613E+05 11508   0.143E+03
DAV:   2    -0.119234914194E+04   -0.33128E+04   -0.31785E+04 13302   0.288E+02
DAV:   3    -0.161271338538E+04   -0.42036E+03   -0.38616E+03 17824   0.820E+01
DAV:   4    -0.163722327864E+04   -0.24510E+02   -0.22703E+02 16208   0.169E+01
DAV:   5    -0.163826953700E+04   -0.10463E+01   -0.10266E+01 17544   0.421E+00    0.404E+01
DAV:   6    -0.159701987237E+04    0.41250E+02   -0.12497E+02 17600   0.151E+01    0.228E+01
DAV:   7    -0.158700191075E+04    0.10018E+02   -0.94258E+01 17640   0.155E+01    0.176E+01
DAV:   8    -0.157644173659E+04    0.10560E+02   -0.60262E+01 17200   0.121E+01    0.104E+01
DAV:   9    -0.157054371879E+04    0.58980E+01   -0.26610E+01 16664   0.810E+00    0.303E+00
DAV:  10    -0.157049239728E+04    0.51322E-01   -0.53261E+00 16520   0.318E+00    0.154E+00
DAV:  11    -0.157048609171E+04    0.63056E-02   -0.64121E-01 15184   0.114E+00    0.105E+00
DAV:  12    -0.157047323221E+04    0.12860E-01   -0.18984E-01 15920   0.710E-01    0.719E-01
DAV:  13    -0.157045326086E+04    0.19971E-01   -0.74953E-02 15856   0.470E-01    0.362E-01
DAV:  14    -0.157044906527E+04    0.41956E-02   -0.24646E-02 16416   0.210E-01    0.152E-01
DAV:  15    -0.157044859109E+04    0.47418E-03   -0.54190E-03 15992   0.115E-01    0.849E-02
DAV:  16    -0.157044846629E+04    0.12480E-03   -0.16595E-03 15608   0.651E-02    0.534E-02
DAV:  17    -0.157044842178E+04    0.44502E-04   -0.72545E-04 14208   0.423E-02    0.265E-02
DAV:  18    -0.157044841412E+04    0.76682E-05   -0.20635E-04 15088   0.234E-02    0.159E-02
DAV:  19    -0.157044840164E+04    0.12482E-04   -0.60174E-05 10664   0.133E-02    0.864E-03
DAV:  20    -0.157044839564E+04    0.59913E-05   -0.21478E-05  7264   0.750E-03
   1 F= -.15704484E+04 E0= -.15704490E+04  d E =-.157045E+04
       N       E                     dE             d eps       ncg     rms          rms(c)
DAV:   1    -0.157613634538E+04   -0.56879E+01   -0.18446E+03 11508   0.653E+01    0.238E+01
DAV:   2    -0.155489297875E+04    0.21243E+02   -0.12617E+02 18288   0.151E+01    0.145E+01
DAV:   3    -0.154853634648E+04    0.63566E+01   -0.69641E+01 19464   0.117E+01    0.106E+01
DAV:   4    -0.154453950753E+04    0.39968E+01   -0.24761E+01 19736   0.720E+00    0.735E+00
DAV:   5    -0.154206210513E+04    0.24774E+01   -0.14791E+01 17336   0.493E+00    0.290E+00
DAV:   6    -0.154179743783E+04    0.26467E+00   -0.35807E+00 16952   0.251E+00    0.158E+00
DAV:   7    -0.154176973850E+04    0.27699E-01   -0.55059E-01 15216   0.112E+00    0.116E+00
DAV:   8    -0.154175383220E+04    0.15906E-01   -0.19085E-01 17264   0.525E-01    0.615E-01
DAV:   9    -0.154176061909E+04   -0.67869E-02   -0.11527E-01 18008   0.356E-01    0.356E-01
DAV:  10    -0.154176244469E+04   -0.18256E-02   -0.28509E-02 17040   0.254E-01    0.293E-01
DAV:  11    -0.154175932344E+04    0.31213E-02   -0.12993E-02 17400   0.167E-01    0.138E-01
DAV:  12    -0.154175918439E+04    0.13905E-03   -0.82203E-03 18488   0.104E-01    0.694E-02
DAV:  13    -0.154175952875E+04   -0.34436E-03   -0.12944E-03 16128   0.458E-02    0.424E-02
DAV:  14    -0.154175959306E+04   -0.64304E-04   -0.50075E-04 18392   0.316E-02    0.248E-02
DAV:  15    -0.154175959361E+04   -0.55424E-06   -0.16010E-04 15664   0.181E-02    0.160E-02
DAV:  16    -0.154175959249E+04    0.11227E-05   -0.46373E-05  9176   0.101E-02
   2 F= -.15417596E+04 E0= -.15417635E+04  d E =0.286888E+02
       N       E                     dE             d eps       ncg     rms          rms(c)
DAV:   1    -0.159356935692E+04   -0.51810E+02   -0.88750E+02 11508   0.500E+01    0.165E+01
DAV:   2    -0.158196569973E+04    0.11604E+02   -0.34527E+01 16988   0.930E+00    0.800E+00
DAV:   3    -0.158014399967E+04    0.18217E+01   -0.18657E+01 16984   0.646E+00    0.633E+00
DAV:   4    -0.157842071823E+04    0.17233E+01   -0.82412E+00 17632   0.484E+00    0.385E+00
DAV:   5    -0.157764567470E+04    0.77504E+00   -0.44338E+00 16616   0.322E+00    0.126E+00
DAV:   6    -0.157761551711E+04    0.30158E-01   -0.92336E-01 14840   0.141E+00    0.712E-01
DAV:   7    -0.157762299891E+04   -0.74818E-02   -0.13946E-01 15608   0.539E-01    0.541E-01
DAV:   8    -0.157762573790E+04   -0.27390E-02   -0.32732E-02 15728   0.252E-01    0.316E-01
DAV:   9    -0.157763629086E+04   -0.10553E-01   -0.43080E-02 16712   0.237E-01    0.241E-01
DAV:  10    -0.157763545776E+04    0.83310E-03   -0.75194E-03 16376   0.149E-01    0.147E-01
DAV:  11    -0.157763487603E+04    0.58172E-03   -0.37409E-03 17384   0.825E-02    0.626E-02
DAV:  12    -0.157763511425E+04   -0.23822E-03   -0.20218E-03 17112   0.551E-02    0.465E-02
DAV:  13    -0.157763530183E+04   -0.18758E-03   -0.39602E-04 14544   0.286E-02    0.279E-02
DAV:  14    -0.157763529791E+04    0.39148E-05   -0.11337E-04 13736   0.162E-02    0.142E-02
DAV:  15    -0.157763529142E+04    0.64897E-05   -0.35669E-05  7600   0.900E-03
   3 F= -.15776353E+04 E0= -.15776233E+04  d E =-.358757E+02
       N       E                     dE             d eps       ncg     rms          rms(c)
DAV:   1    -0.157784461581E+04   -0.20932E+00   -0.21070E+01 11508   0.615E+00    0.853E-01
DAV:   2    -0.157785638623E+04   -0.11770E-01   -0.36769E-01 16952   0.771E-01    0.636E-01
DAV:   3    -0.157784368325E+04    0.12703E-01   -0.92074E-02 18616   0.486E-01    0.443E-01
DAV:   4    -0.157783752529E+04    0.61580E-02   -0.27541E-02 16776   0.253E-01    0.257E-01
DAV:   5    -0.157783547322E+04    0.20521E-02   -0.14929E-02 15000   0.177E-01    0.104E-01
DAV:   6    -0.157783529489E+04    0.17833E-03   -0.37376E-03 15192   0.963E-02    0.598E-02
DAV:   7    -0.157783525557E+04    0.39319E-04   -0.96745E-04 16656   0.524E-02    0.444E-02
DAV:   8    -0.157783520750E+04    0.48070E-04   -0.31561E-04 16160   0.268E-02    0.244E-02
DAV:   9    -0.157783521113E+04   -0.36276E-05   -0.11812E-04 14504   0.158E-02    0.151E-02
DAV:  10    -0.157783520869E+04    0.24389E-05   -0.38955E-05  9552   0.121E-02
   4 F= -.15778352E+04 E0= -.15778263E+04  d E =-.199917E+00
       N       E                     dE             d eps       ncg     rms          rms(c)
DAV:   1    -0.157787225948E+04   -0.37048E-01   -0.36719E+00 11514   0.254E+00    0.407E-01
DAV:   2    -0.157787750481E+04   -0.52453E-02   -0.97584E-02 18096   0.471E-01    0.382E-01
DAV:   3    -0.157786899027E+04    0.85145E-02   -0.38723E-02 18576   0.320E-01    0.194E-01
DAV:   4    -0.157786773531E+04    0.12550E-02   -0.65655E-03 16792   0.119E-01    0.128E-01
DAV:   5    -0.157786720545E+04    0.52986E-03   -0.29263E-03 15592   0.808E-02    0.664E-02
DAV:   6    -0.157786708632E+04    0.11913E-03   -0.11683E-03 15360   0.549E-02    0.385E-02
DAV:   7    -0.157786702668E+04    0.59633E-04   -0.34184E-04 15832   0.318E-02    0.217E-02
DAV:   8    -0.157786702681E+04   -0.12533E-06   -0.83338E-05 13256   0.130E-02
   5 F= -.15778670E+04 E0= -.15778576E+04  d E =-.318181E-01
       N       E                     dE             d eps       ncg     rms          rms(c)
DAV:   1    -0.157787821794E+04   -0.11191E-01   -0.93620E-01 11526   0.133E+00    0.227E-01
DAV:   2    -0.157787812624E+04    0.91695E-04   -0.15497E-02 16920   0.177E-01    0.169E-01
DAV:   3    -0.157787708437E+04    0.10419E-02   -0.61152E-03 18597   0.129E-01    0.112E-01
DAV:   4    -0.157787666706E+04    0.41731E-03   -0.18344E-03 16008   0.642E-02    0.541E-02
DAV:   5    -0.157787662629E+04    0.40768E-04   -0.87270E-04 15440   0.461E-02    0.259E-02
DAV:   6    -0.157787661824E+04    0.80534E-05   -0.23936E-04 15712   0.263E-02    0.166E-02
DAV:   7    -0.157787661161E+04    0.66260E-05   -0.54553E-05 11208   0.128E-02
   6 F= -.15778766E+04 E0= -.15778680E+04  d E =-.958481E-02
       N       E                     dE             d eps       ncg     rms          rms(c)
DAV:   1    -0.157788500086E+04   -0.83826E-02   -0.45056E-01 11532   0.915E-01    0.186E-01
DAV:   2    -0.157788518986E+04   -0.18900E-03   -0.14071E-02 18144   0.190E-01    0.162E-01
DAV:   3    -0.157788365384E+04    0.15360E-02   -0.69279E-03 18648   0.136E-01    0.850E-02
DAV:   4    -0.157788334980E+04    0.30404E-03   -0.13360E-03 16392   0.532E-02    0.528E-02
DAV:   5    -0.157788320440E+04    0.14540E-03   -0.60312E-04 15456   0.379E-02    0.254E-02
DAV:   6    -0.157788316972E+04    0.34682E-04   -0.20707E-04 15416   0.235E-02    0.155E-02
DAV:   7    -0.157788315853E+04    0.11192E-04   -0.50770E-05 11080   0.129E-02    0.909E-03
DAV:   8    -0.157788316057E+04   -0.20405E-05   -0.14018E-05  6792   0.656E-03
   7 F= -.15778832E+04 E0= -.15778742E+04  d E =-.654895E-02
       N       E                     dE             d eps       ncg     rms          rms(c)
DAV:   1    -0.157788637696E+04   -0.32184E-02   -0.33846E-01 11511   0.762E-01    0.913E-02
DAV:   2    -0.157788720158E+04   -0.82462E-03   -0.61208E-03 17696   0.123E-01    0.112E-01
DAV:   3    -0.157788643213E+04    0.76945E-03   -0.25038E-03 17997   0.831E-02    0.498E-02
DAV:   4    -0.157788640782E+04    0.24304E-04   -0.37785E-04 16808   0.277E-02    0.332E-02
DAV:   5    -0.157788639544E+04    0.12383E-04   -0.21028E-04 15152   0.219E-02    0.133E-02
DAV:   6    -0.157788639356E+04    0.18835E-05   -0.58689E-05 11672   0.139E-02
   8 F= -.15778864E+04 E0= -.15778776E+04  d E =-.323299E-02
       N       E                     dE             d eps       ncg     rms          rms(c)
DAV:   1    -0.157788796513E+04   -0.15697E-02   -0.13185E-01 11562   0.484E-01    0.801E-02
DAV:   2    -0.157788812686E+04   -0.16173E-03   -0.31165E-03 18024   0.907E-02    0.795E-02
DAV:   3    -0.157788773823E+04    0.38863E-03   -0.14932E-03 18592   0.638E-02    0.383E-02
DAV:   4    -0.157788767653E+04    0.61699E-04   -0.24590E-04 16120   0.225E-02    0.246E-02
DAV:   5    -0.157788763822E+04    0.38310E-04   -0.11627E-04 14480   0.171E-02    0.120E-02
DAV:   6    -0.157788762676E+04    0.11457E-04   -0.36077E-05  9024   0.116E-02    0.694E-03
DAV:   7    -0.157788762437E+04    0.23960E-05   -0.11122E-05  6744   0.703E-03
   9 F= -.15778876E+04 E0= -.15778787E+04  d E =-.123081E-02
       N       E                     dE             d eps       ncg     rms          rms(c)
DAV:   1    -0.157788846253E+04   -0.83577E-03   -0.47945E-02 11556   0.296E-01    0.492E-02
DAV:   2    -0.157788849401E+04   -0.31478E-04   -0.71642E-04 16944   0.401E-02    0.382E-02
DAV:   3    -0.157788844236E+04    0.51653E-04   -0.30491E-04 18293   0.291E-02    0.245E-02
DAV:   4    -0.157788843906E+04    0.32973E-05   -0.74285E-05 13200   0.132E-02    0.112E-02
DAV:   5    -0.157788844826E+04   -0.92053E-05   -0.26200E-05  7488   0.978E-03
  10 F= -.15778884E+04 E0= -.15778797E+04  d E =-.823895E-03
       N       E                     dE             d eps       ncg     rms          rms(c)
DAV:   1    -0.157788917405E+04   -0.73499E-03   -0.63841E-02 11544   0.330E-01    0.417E-02
DAV:   2    -0.157788927339E+04   -0.99344E-04   -0.10869E-03 17992   0.521E-02    0.463E-02
DAV:   3    -0.157788914514E+04    0.12825E-03   -0.44704E-04 18512   0.353E-02    0.225E-02
DAV:   4    -0.157788912789E+04    0.17252E-04   -0.58776E-05 11376   0.116E-02    0.146E-02
DAV:   5    -0.157788911463E+04    0.13262E-04   -0.27618E-05  7600   0.974E-03    0.589E-03
DAV:   6    -0.157788911198E+04    0.26457E-05   -0.92233E-06  6728   0.695E-03
  11 F= -.15778891E+04 E0= -.15778803E+04  d E =-.663719E-03
       N       E                     dE             d eps       ncg     rms          rms(c)
DAV:   1    -0.157788958303E+04   -0.46840E-03   -0.54316E-02 11532   0.304E-01    0.326E-02
DAV:   2    -0.157788965888E+04   -0.75852E-04   -0.63751E-04 17456   0.370E-02    0.331E-02
DAV:   3    -0.157788961000E+04    0.48883E-04   -0.19046E-04 16788   0.236E-02    0.193E-02
DAV:   4    -0.157788961171E+04   -0.17079E-05   -0.39425E-05  9216   0.983E-03    0.849E-03
DAV:   5    -0.157788961498E+04   -0.32732E-05   -0.14122E-05  7052   0.784E-03
  12 F= -.15778896E+04 E0= -.15778809E+04  d E =-.502998E-03
       N       E                     dE             d eps       ncg     rms          rms(c)
DAV:   1    -0.157788984348E+04   -0.23177E-03   -0.92848E-03 11556   0.131E-01    0.245E-02
DAV:   2    -0.157788981740E+04    0.26080E-04   -0.17144E-04 16856   0.199E-02    0.174E-02
DAV:   3    -0.157788980035E+04    0.17041E-04   -0.65292E-05 11712   0.146E-02    0.112E-02
DAV:   4    -0.157788978786E+04    0.12496E-04   -0.18096E-05  6992   0.786E-03    0.622E-03
DAV:   5    -0.157788977901E+04    0.88437E-05   -0.88049E-06  6192   0.565E-03
  13 F= -.15778898E+04 E0= -.15778810E+04  d E =-.164034E-03
       N       E                     dE             d eps       ncg     rms          rms(c)
DAV:   1    -0.157789005903E+04   -0.27118E-03   -0.25327E-02 11544   0.207E-01    0.216E-02
DAV:   2    -0.157789008711E+04   -0.28079E-04   -0.25269E-04 17008   0.223E-02    0.196E-02
DAV:   3    -0.157789007393E+04    0.13183E-04   -0.49491E-05 10509   0.133E-02    0.132E-02
DAV:   4    -0.157789007682E+04   -0.28909E-05   -0.21442E-05  6648   0.758E-03    0.449E-03
DAV:   5    -0.157789007882E+04   -0.19986E-05   -0.73491E-06  6392   0.610E-03
  14 F= -.15778901E+04 E0= -.15778813E+04  d E =-.299804E-03
       N       E                     dE             d eps       ncg     rms          rms(c)
DAV:   1    -0.157789035592E+04   -0.27910E-03   -0.30892E-02 11532   0.228E-01    0.230E-02
DAV:   2    -0.157789037536E+04   -0.19440E-04   -0.31879E-04 17128   0.255E-02    0.216E-02
DAV:   3    -0.157789035547E+04    0.19888E-04   -0.75373E-05 13474   0.156E-02    0.140E-02
DAV:   4    -0.157789034725E+04    0.82155E-05   -0.19545E-05  6824   0.730E-03    0.725E-03
DAV:   5    -0.157789034279E+04    0.44689E-05   -0.93102E-06  6368   0.634E-03
  15 F= -.15778903E+04 E0= -.15778816E+04  d E =-.263967E-03
       N       E                     dE             d eps       ncg     rms          rms(c)
DAV:   1    -0.157789044502E+04   -0.97768E-04   -0.57936E-03 11556   0.101E-01    0.142E-02
DAV:   2    -0.157789045359E+04   -0.85629E-05   -0.56658E-05 11624   0.106E-02    0.888E-03
DAV:   3    -0.157789045562E+04   -0.20385E-05   -0.13736E-05  7192   0.713E-03    0.676E-03
DAV:   4    -0.157789045924E+04   -0.36161E-05   -0.56914E-06  6184   0.495E-03    0.339E-03
DAV:   5    -0.157789046270E+04   -0.34566E-05   -0.31310E-06  6103   0.340E-03
  16 F= -.15778905E+04 E0= -.15778817E+04  d E =-.119911E-03
       N       E                     dE             d eps       ncg     rms          rms(c)
DAV:   1    -0.157789063059E+04   -0.17135E-03   -0.12555E-02 11541   0.146E-01    0.161E-02
DAV:   2    -0.157789062974E+04    0.85015E-06   -0.12657E-04 15944   0.152E-02    0.127E-02
DAV:   3    -0.157789062365E+04    0.60864E-05   -0.18405E-05  7858   0.892E-03    0.938E-03
DAV:   4    -0.157789061792E+04    0.57334E-05   -0.10283E-05  6183   0.551E-03    0.486E-03
DAV:   5    -0.157789061444E+04    0.34816E-05   -0.51220E-06  6108   0.460E-03
  17 F= -.15778906E+04 E0= -.15778819E+04  d E =-.151742E-03
       N       E                     dE             d eps       ncg     rms          rms(c)
DAV:   1    -0.157789077013E+04   -0.15221E-03   -0.15926E-02 11532   0.164E-01    0.153E-02
DAV:   2    -0.157789078328E+04   -0.13149E-04   -0.13875E-04 16160   0.153E-02    0.125E-02
DAV:   3    -0.157789078090E+04    0.23743E-05   -0.12992E-05  7413   0.742E-03    0.980E-03
DAV:   4    -0.157789078213E+04   -0.12250E-05   -0.11292E-05  6168   0.542E-03    0.254E-03
DAV:   5    -0.157789078276E+04   -0.63226E-06   -0.32809E-06  6098   0.410E-03
  18 F= -.15778908E+04 E0= -.15778821E+04  d E =-.168321E-03
       N       E                     dE             d eps       ncg     rms          rms(c)
DAV:   1    -0.157789092702E+04   -0.14489E-03   -0.14272E-02 11526   0.156E-01    0.164E-02
DAV:   2    -0.157789092465E+04    0.23682E-05   -0.13491E-04 16072   0.153E-02    0.123E-02
DAV:   3    -0.157789091966E+04    0.49919E-05   -0.16327E-05  7690   0.830E-03    0.941E-03
DAV:   4    -0.157789091344E+04    0.62231E-05   -0.90165E-06  6234   0.559E-03    0.487E-03
DAV:   5    -0.157789090949E+04    0.39517E-05   -0.48622E-06  6075   0.435E-03
  19 F= -.15778909E+04 E0= -.15778822E+04  d E =-.126727E-03
       N       E                     dE             d eps       ncg     rms          rms(c)
DAV:   1    -0.157789096060E+04   -0.47157E-04   -0.21265E-03 11550   0.618E-02    0.937E-03
DAV:   2    -0.157789096608E+04   -0.54877E-05   -0.16336E-05  6437   0.685E-03    0.568E-03
DAV:   3    -0.157789096802E+04   -0.19410E-05   -0.63873E-06  6178   0.537E-03    0.432E-03
DAV:   4    -0.157789097121E+04   -0.31820E-05   -0.35927E-06  5925   0.380E-03    0.187E-03
DAV:   5    -0.157789097313E+04   -0.19228E-05   -0.20065E-06  5925   0.252E-03
  20 F= -.15778910E+04 E0= -.15778823E+04  d E =-.636422E-04
       N       E                     dE             d eps       ncg     rms          rms(c)
DAV:   1    -0.157789108436E+04   -0.11316E-03   -0.10431E-02 11514   0.132E-01    0.129E-02
DAV:   2    -0.157789108664E+04   -0.22795E-05   -0.94657E-05 15104   0.120E-02    0.983E-03
DAV:   3    -0.157789108466E+04    0.19851E-05   -0.79361E-06  6767   0.552E-03    0.763E-03
DAV:   4    -0.157789108102E+04    0.36350E-05   -0.55411E-06  6102   0.452E-03    0.285E-03
DAV:   5    -0.157789107992E+04    0.11025E-05   -0.23871E-06  5892   0.328E-03
  21 F= -.15778911E+04 E0= -.15778824E+04  d E =-.106791E-03
       N       E                     dE             d eps       ncg     rms          rms(c)
DAV:   1    -0.157789116394E+04   -0.82921E-04   -0.80339E-03 11520   0.116E-01    0.110E-02
DAV:   2    -0.157789117145E+04   -0.75063E-05   -0.64805E-05 12432   0.104E-02    0.826E-03
DAV:   3    -0.157789117221E+04   -0.75860E-06   -0.87498E-06  6410   0.545E-03    0.629E-03
DAV:   4    -0.157789117417E+04   -0.19574E-05   -0.46814E-06  5965   0.407E-03    0.211E-03
DAV:   5    -0.157789117516E+04   -0.99829E-06   -0.20274E-06  5901   0.292E-03
  22 F= -.15778912E+04 E0= -.15778825E+04  d E =-.952442E-04
       N       E                     dE             d eps       ncg     rms          rms(c)
DAV:   1    -0.157789123830E+04   -0.64132E-04   -0.37750E-03 11520   0.803E-02    0.923E-03
DAV:   2    -0.157789123230E+04    0.59992E-05   -0.24537E-05  7680   0.786E-03    0.600E-03
DAV:   3    -0.157789123061E+04    0.16869E-05   -0.91520E-06  6229   0.544E-03    0.451E-03
DAV:   4    -0.157789122748E+04    0.31271E-05   -0.48343E-06  5877   0.406E-03    0.220E-03
DAV:   5    -0.157789122606E+04    0.14289E-05   -0.28675E-06  5841   0.291E-03
  23 F= -.15778912E+04 E0= -.15778825E+04  d E =-.508915E-04
       N       E                     dE             d eps       ncg     rms          rms(c)
DAV:   1    -0.157789128326E+04   -0.55775E-04   -0.46227E-03 11520   0.884E-02    0.938E-03
DAV:   2    -0.157789128833E+04   -0.50741E-05   -0.34133E-05  9136   0.841E-03    0.663E-03
DAV:   3    -0.157789128986E+04   -0.15238E-05   -0.97420E-06  6188   0.532E-03    0.496E-03
DAV:   4    -0.157789129198E+04   -0.21180E-05   -0.53164E-06  5835   0.412E-03    0.210E-03
DAV:   5    -0.157789129323E+04   -0.12495E-05   -0.29273E-06  5832   0.299E-03
  24 F= -.15778913E+04 E0= -.15778826E+04  d E =-.671696E-04
       N       E                     dE             d eps       ncg     rms          rms(c)
DAV:   1    -0.157789135194E+04   -0.59963E-04   -0.43941E-03 11514   0.860E-02    0.867E-03
DAV:   2    -0.157789134949E+04    0.24499E-05   -0.27617E-05  7895   0.816E-03    0.612E-03
DAV:   3    -0.157789134862E+04    0.86864E-06   -0.10024E-05  6155   0.529E-03    0.445E-03
DAV:   4    -0.157789134637E+04    0.22463E-05   -0.56824E-06  5844   0.423E-03    0.177E-03
DAV:   5    -0.157789134587E+04    0.50848E-06   -0.32446E-06  5832   0.314E-03
  25 F= -.15778913E+04 E0= -.15778826E+04  d E =-.526405E-04
       N       E                     dE             d eps       ncg     rms          rms(c)
DAV:   1    -0.157789139428E+04   -0.47906E-04   -0.43252E-03 11514   0.853E-02    0.862E-03
DAV:   2    -0.157789139885E+04   -0.45728E-05   -0.31091E-05  8720   0.814E-03    0.615E-03
DAV:   3    -0.157789140039E+04   -0.15366E-05   -0.94859E-06  6134   0.508E-03    0.447E-03
DAV:   4    -0.157789140229E+04   -0.18977E-05   -0.53225E-06  5835   0.408E-03    0.182E-03
DAV:   5    -0.157789140326E+04   -0.97464E-06   -0.29701E-06  5835   0.299E-03
  26 F= -.15778914E+04 E0= -.15778827E+04  d E =-.573967E-04
       N       E                     dE             d eps       ncg     rms          rms(c)
DAV:   1    -0.157789144084E+04   -0.38549E-04   -0.19809E-03 11520   0.579E-02    0.657E-03
DAV:   2    -0.157789143738E+04    0.34529E-05   -0.14275E-05  5891   0.597E-03    0.437E-03
DAV:   3    -0.157789143634E+04    0.10439E-05   -0.56329E-06  5829   0.419E-03    0.322E-03
DAV:   4    -0.157789143447E+04    0.18714E-05   -0.30955E-06  5835   0.318E-03    0.159E-03
DAV:   5    -0.157789143359E+04    0.87534E-06   -0.18704E-06  5835   0.239E-03
  27 F= -.15778914E+04 E0= -.15778827E+04  d E =-.303305E-04
       N       E                     dE             d eps       ncg     rms          rms(c)
DAV:   1    -0.157789147493E+04   -0.40460E-04   -0.35336E-03 11514   0.770E-02    0.740E-03
DAV:   2    -0.157789147766E+04   -0.27295E-05   -0.21528E-05  8064   0.714E-03    0.542E-03
DAV:   3    -0.157789147862E+04   -0.96657E-06   -0.78451E-06  6189   0.448E-03    0.395E-03
DAV:   4    -0.157789147994E+04   -0.13182E-05   -0.48355E-06  5835   0.373E-03    0.115E-03
DAV:   5    -0.157789148035E+04   -0.40855E-06   -0.25509E-06  5832   0.274E-03
  28 F= -.15778915E+04 E0= -.15778828E+04  d E =-.467584E-04
       N       E                     dE             d eps       ncg     rms          rms(c)
DAV:   1    -0.157789153192E+04   -0.51981E-04   -0.56236E-03 11514   0.973E-02    0.961E-03
DAV:   2    -0.157789153076E+04    0.11651E-05   -0.49911E-05 11032   0.911E-03    0.705E-03
DAV:   3    -0.157789152903E+04    0.17237E-05   -0.82307E-06  6210   0.503E-03    0.478E-03
DAV:   4    -0.157789152669E+04    0.23465E-05   -0.35827E-06  5892   0.382E-03    0.216E-03
DAV:   5    -0.157789152566E+04    0.10320E-05   -0.19155E-06  5868   0.277E-03
  29 F= -.15778915E+04 E0= -.15778828E+04  d E =-.453053E-04
       N       E                     dE             d eps       ncg     rms          rms(c)
DAV:   1    -0.157789153166E+04   -0.49704E-05   -0.15604E-04 11320   0.176E-02    0.404E-03
DAV:   2    -0.157789153466E+04   -0.29993E-05   -0.26512E-06  5808   0.275E-03    0.213E-03
DAV:   3    -0.157789153571E+04   -0.10470E-05   -0.12247E-06  5808   0.244E-03    0.169E-03
DAV:   4    -0.157789153700E+04   -0.12926E-05   -0.58273E-07  5808   0.158E-03    0.747E-04
DAV:   5    -0.157789153797E+04   -0.97403E-06   -0.34187E-07  5808   0.990E-04
  30 F= -.15778915E+04 E0= -.15778829E+04  d E =-.123153E-04
       N       E                     dE             d eps       ncg     rms          rms(c)
DAV:   1    -0.157789157646E+04   -0.39459E-04   -0.38010E-03 11514   0.799E-02    0.738E-03
DAV:   2    -0.157789157673E+04   -0.27454E-06   -0.20148E-05  7373   0.694E-03    0.541E-03
DAV:   3    -0.157789157653E+04    0.19794E-06   -0.72659E-06  6058   0.414E-03    0.335E-03
DAV:   4    -0.157789157602E+04    0.50920E-06   -0.42314E-06  5835   0.364E-03    0.903E-04
DAV:   5    -0.157789157618E+04   -0.15808E-06   -0.21636E-06  5835   0.251E-03
  31 F= -.15778916E+04 E0= -.15778829E+04  d E =-.382104E-04
       N       E                     dE             d eps       ncg     rms          rms(c)
DAV:   1    -0.157789168707E+04   -0.11104E-03   -0.70901E-02 11508   0.345E-01    0.313E-02
DAV:   2    -0.157789172828E+04   -0.41211E-04   -0.60321E-04 16976   0.299E-02    0.241E-02
DAV:   3    -0.157789172271E+04    0.55683E-05   -0.43153E-05 10093   0.112E-02    0.159E-02
DAV:   4    -0.157789171826E+04    0.44517E-05   -0.29762E-05  8512   0.110E-02    0.538E-03
DAV:   5    -0.157789171748E+04    0.78107E-06   -0.93164E-06  6629   0.703E-03
  32 F= -.15778917E+04 E0= -.15778831E+04  d E =-.141293E-03
       N       E                     dE             d eps       ncg     rms          rms(c)
DAV:   1    -0.157789164548E+04    0.72778E-04   -0.29457E-02 11508   0.223E-01    0.222E-02
DAV:   2    -0.157789164629E+04   -0.81171E-06   -0.22673E-04 16592   0.193E-02    0.165E-02
DAV:   3    -0.157789163992E+04    0.63658E-05   -0.17166E-05  7840   0.823E-03    0.125E-02
DAV:   4    -0.157789162938E+04    0.10546E-04   -0.14586E-05  6909   0.766E-03    0.423E-03
DAV:   5    -0.157789162698E+04    0.23936E-05   -0.55649E-06  5835   0.506E-03
  33 F= -.15778916E+04 E0= -.15778830E+04  d E =0.904906E-04
       N       E                     dE             d eps       ncg     rms          rms(c)
DAV:   1    -0.157789168397E+04   -0.54596E-04   -0.12960E-02 11514   0.148E-01    0.138E-02
DAV:   2    -0.157789168994E+04   -0.59656E-05   -0.94125E-05 14672   0.126E-02    0.107E-02
DAV:   3    -0.157789168900E+04    0.93451E-06   -0.80821E-06  6214   0.561E-03    0.816E-03
DAV:   4    -0.157789168829E+04    0.71023E-06   -0.85285E-06  5901   0.515E-03    0.202E-03
DAV:   5    -0.157789168828E+04    0.13239E-07   -0.20679E-06  5835   0.331E-03
  34 F= -.15778917E+04 E0= -.15778830E+04  d E =-.612970E-04
       N       E                     dE             d eps       ncg     rms          rms(c)
DAV:   1    -0.157789176440E+04   -0.76105E-04   -0.60391E-02 11508   0.318E-01    0.285E-02
DAV:   2    -0.157789179415E+04   -0.29754E-04   -0.50427E-04 16928   0.274E-02    0.220E-02
DAV:   3    -0.157789178771E+04    0.64405E-05   -0.31968E-05  9125   0.102E-02    0.158E-02
DAV:   4    -0.157789177879E+04    0.89241E-05   -0.25764E-05  8024   0.101E-02    0.486E-03
DAV:   5    -0.157789177779E+04    0.99756E-06   -0.83879E-06  6325   0.675E-03
  35 F= -.15778918E+04 E0= -.15778831E+04  d E =-.895098E-04
       N       E                     dE             d eps       ncg     rms          rms(c)
DAV:   1    -0.157789173971E+04    0.39081E-04   -0.10369E-02 11514   0.133E-01    0.157E-02
DAV:   2    -0.157789174675E+04   -0.70470E-05   -0.78491E-05 13424   0.121E-02    0.107E-02
DAV:   3    -0.157789174800E+04   -0.12412E-05   -0.12527E-05  6794   0.659E-03    0.806E-03
DAV:   4    -0.157789174969E+04   -0.16919E-05   -0.61504E-06  5917   0.532E-03    0.390E-03
DAV:   5    -0.157789175200E+04   -0.23164E-05   -0.34188E-06  5817   0.374E-03
  36 F= -.15778918E+04 E0= -.15778831E+04  d E =0.257874E-04
       N       E                     dE             d eps       ncg     rms          rms(c)
DAV:   1    -0.157789179403E+04   -0.44347E-04   -0.94046E-03 11514   0.126E-01    0.126E-02
DAV:   2    -0.157789179075E+04    0.32879E-05   -0.66459E-05 13016   0.111E-02    0.911E-03
DAV:   3    -0.157789178792E+04    0.28268E-05   -0.87426E-06  6115   0.563E-03    0.678E-03
DAV:   4    -0.157789178332E+04    0.45994E-05   -0.49011E-06  5892   0.456E-03    0.267E-03
DAV:   5    -0.157789178174E+04    0.15802E-05   -0.23455E-06  5835   0.324E-03
  37 F= -.15778918E+04 E0= -.15778831E+04  d E =-.297368E-04
       N       E                     dE             d eps       ncg     rms          rms(c)
DAV:   1    -0.157789179201E+04   -0.86850E-05   -0.16451E-03 11514   0.525E-02    0.472E-03
DAV:   2    -0.157789179310E+04   -0.10935E-05   -0.10159E-05  5833   0.488E-03    0.363E-03
DAV:   3    -0.157789179333E+04   -0.23333E-06   -0.36708E-06  5817   0.308E-03    0.278E-03
DAV:   4    -0.157789179379E+04   -0.45266E-06   -0.23573E-06  5799   0.238E-03    0.697E-04
DAV:   5    -0.157789179393E+04   -0.14121E-06   -0.11750E-06  5799   0.184E-03
  38 F= -.15778918E+04 E0= -.15778832E+04  d E =-.121859E-04
       N       E                     dE             d eps       ncg     rms          rms(c)
DAV:   1    -0.157789181417E+04   -0.20389E-04   -0.70002E-03 11514   0.109E-01    0.106E-02
DAV:   2    -0.157789181323E+04    0.94317E-06   -0.59998E-05 11960   0.992E-03    0.791E-03
DAV:   3    -0.157789181169E+04    0.15463E-05   -0.85825E-06  6333   0.532E-03    0.600E-03
DAV:   4    -0.157789180850E+04    0.31841E-05   -0.39737E-06  5892   0.382E-03    0.257E-03
DAV:   5    -0.157789180712E+04    0.13783E-05   -0.20720E-06  5844   0.282E-03
  39 F= -.15778918E+04 E0= -.15778832E+04  d E =-.131965E-04
       N       E                     dE             d eps       ncg     rms          rms(c)
DAV:   1    -0.157789179717E+04    0.11332E-04   -0.19576E-03 11514   0.579E-02    0.658E-03
DAV:   2    -0.157789180021E+04   -0.30420E-05   -0.10030E-05  5815   0.530E-03    0.434E-03
DAV:   3    -0.157789180133E+04   -0.11174E-05   -0.32477E-06  5799   0.336E-03    0.332E-03
DAV:   4    -0.157789180289E+04   -0.15591E-05   -0.18089E-06  5799   0.256E-03    0.145E-03
DAV:   5    -0.157789180384E+04   -0.95303E-06   -0.97723E-07  5799   0.172E-03
  40 F= -.15778918E+04 E0= -.15778832E+04  d E =0.328259E-05
       N       E                     dE             d eps       ncg     rms          rms(c)
DAV:   1    -0.157789181084E+04   -0.79488E-05   -0.99524E-04 11514   0.410E-02    0.358E-03
DAV:   2    -0.157789181117E+04   -0.33846E-06   -0.43920E-06  5772   0.345E-03    0.270E-03
DAV:   3    -0.157789181118E+04   -0.38854E-08   -0.11990E-06  5772   0.193E-03    0.209E-03
DAV:   4    -0.157789181123E+04   -0.49442E-07   -0.87082E-07  5772   0.156E-03    0.527E-04
DAV:   5    -0.157789181126E+04   -0.28289E-07   -0.35422E-07  5772   0.109E-03
  41 F= -.15778918E+04 E0= -.15778832E+04  d E =-.741580E-05
       N       E                     dE             d eps       ncg     rms          rms(c)
DAV:   1    -0.157789182446E+04   -0.13228E-04   -0.36358E-03 11514   0.784E-02    0.784E-03
DAV:   2    -0.157789182129E+04    0.31702E-05   -0.20580E-05  7181   0.710E-03    0.539E-03
DAV:   3    -0.157789181996E+04    0.13213E-05   -0.74047E-06  6021   0.443E-03    0.373E-03
DAV:   4    -0.157789181800E+04    0.19684E-05   -0.39416E-06  5808   0.361E-03    0.160E-03
DAV:   5    -0.157789181738E+04    0.61089E-06   -0.22946E-06  5808   0.255E-03
  42 F= -.15778918E+04 E0= -.15778832E+04  d E =-.612876E-05
       N       E                     dE             d eps       ncg     rms          rms(c)
DAV:   1    -0.157789181184E+04    0.61594E-05   -0.81823E-04 11514   0.378E-02    0.490E-03
DAV:   2    -0.157789181449E+04   -0.26519E-05   -0.43055E-06  5763   0.355E-03    0.298E-03
DAV:   3    -0.157789181549E+04   -0.99773E-06   -0.14108E-06  5763   0.239E-03    0.232E-03
DAV:   4    -0.157789181664E+04   -0.11526E-05   -0.62505E-07  5763   0.165E-03    0.113E-03
DAV:   5    -0.157789181764E+04   -0.10030E-05   -0.34192E-07  5763   0.997E-04
  43 F= -.15778918E+04 E0= -.15778832E+04  d E =-.256610E-06
       N       E                     dE             d eps       ncg     rms          rms(c)
DAV:   1    -0.157789182223E+04   -0.55960E-05   -0.58358E-04 11514   0.313E-02    0.270E-03
DAV:   2    -0.157789182232E+04   -0.88878E-07   -0.27256E-06  5763   0.263E-03    0.201E-03
DAV:   3    -0.157789182232E+04    0.76316E-08   -0.83955E-07  5763   0.146E-03    0.148E-03
DAV:   4    -0.157789182223E+04    0.81062E-07   -0.55839E-07  5763   0.125E-03    0.314E-04
DAV:   5    -0.157789182224E+04   -0.98148E-08   -0.24574E-07  5763   0.837E-04
  44 F= -.15778918E+04 E0= -.15778832E+04  d E =-.460308E-05
       N       E                     dE             d eps       ncg     rms          rms(c)
DAV:   1    -0.157789183374E+04   -0.11508E-04   -0.86954E-03 11514   0.121E-01    0.109E-02
DAV:   2    -0.157789183718E+04   -0.34414E-05   -0.67784E-05 12880   0.104E-02    0.838E-03
DAV:   3    -0.157789183607E+04    0.11117E-05   -0.83093E-06  6220   0.507E-03    0.499E-03
DAV:   4    -0.157789183508E+04    0.99110E-06   -0.41885E-06  5925   0.427E-03    0.165E-03
DAV:   5    -0.157789183500E+04    0.85439E-07   -0.15203E-06  5835   0.263E-03
  45 F= -.15778918E+04 E0= -.15778832E+04  d E =-.127512E-04
       N       E                     dE             d eps       ncg     rms          rms(c)
DAV:   1    -0.157789183903E+04   -0.39486E-05   -0.50608E-03 11514   0.921E-02    0.805E-03
DAV:   2    -0.157789184055E+04   -0.15244E-05   -0.29911E-05  8447   0.802E-03    0.602E-03
DAV:   3    -0.157789184076E+04   -0.20840E-06   -0.94662E-06  6107   0.468E-03    0.387E-03
DAV:   4    -0.157789184056E+04    0.19854E-06   -0.53920E-06  5817   0.401E-03    0.988E-04
DAV:   5    -0.157789184078E+04   -0.21177E-06   -0.27425E-06  5817   0.279E-03
  46 F= -.15778918E+04 E0= -.15778832E+04  d E =-.578010E-05
