       N       E                     dE             d eps       ncg     rms          rms(c)
DAV:   1     0.219458670364E+04    0.21946E+04   -0.29004E+05 11620   0.143E+03
DAV:   2    -0.119749678417E+04   -0.33921E+04   -0.32559E+04 13486   0.295E+02
DAV:   3    -0.162564215105E+04   -0.42815E+03   -0.39510E+03 17968   0.817E+01
DAV:   4    -0.165016861816E+04   -0.24526E+02   -0.22868E+02 16328   0.171E+01
DAV:   5    -0.165123515762E+04   -0.10665E+01   -0.10472E+01 17816   0.417E+00    0.414E+01
DAV:   6    -0.160822439578E+04    0.43011E+02   -0.15671E+02 17880   0.168E+01    0.233E+01
DAV:   7    -0.159499431738E+04    0.13230E+02   -0.10307E+02 17568   0.161E+01    0.172E+01
DAV:   8    -0.158608888343E+04    0.89054E+01   -0.58667E+01 17360   0.124E+01    0.103E+01
DAV:   9    -0.158015658498E+04    0.59323E+01   -0.24821E+01 16720   0.829E+00    0.302E+00
DAV:  10    -0.158012195712E+04    0.34628E-01   -0.51916E+00 16728   0.310E+00    0.164E+00
DAV:  11    -0.158011500978E+04    0.69473E-02   -0.62393E-01 15656   0.116E+00    0.113E+00
DAV:  12    -0.158009749204E+04    0.17518E-01   -0.21780E-01 15360   0.763E-01    0.712E-01
DAV:  13    -0.158007946829E+04    0.18024E-01   -0.70222E-02 15384   0.461E-01    0.382E-01
DAV:  14    -0.158007455587E+04    0.49124E-02   -0.26980E-02 16016   0.224E-01    0.145E-01
DAV:  15    -0.158007404114E+04    0.51472E-03   -0.64054E-03 16248   0.128E-01    0.778E-02
DAV:  16    -0.158007394298E+04    0.98163E-04   -0.21794E-03 16632   0.700E-02    0.440E-02
DAV:  17    -0.158007390115E+04    0.41833E-04   -0.57080E-04 14792   0.382E-02    0.254E-02
DAV:  18    -0.158007387787E+04    0.23282E-04   -0.16175E-04 15256   0.213E-02    0.156E-02
DAV:  19    -0.158007386106E+04    0.16801E-04   -0.55957E-05 11136   0.131E-02    0.772E-03
DAV:  20    -0.158007385475E+04    0.63141E-05   -0.19101E-05  7264   0.730E-03
   1 F= -.15800739E+04 E0= -.15800792E+04  d E =-.158007E+04
       N       E                     dE             d eps       ncg     rms          rms(c)
DAV:   1    -0.158457836233E+04   -0.45045E+01   -0.15136E+03 11620   0.590E+01    0.213E+01
DAV:   2    -0.156717642556E+04    0.17402E+02   -0.98315E+01 18088   0.136E+01    0.125E+01
DAV:   3    -0.156135931432E+04    0.58171E+01   -0.53986E+01 19472   0.103E+01    0.865E+00
DAV:   4    -0.155890708239E+04    0.24522E+01   -0.17743E+01 19352   0.645E+00    0.635E+00
DAV:   5    -0.155706767892E+04    0.18394E+01   -0.11645E+01 17824   0.456E+00    0.271E+00
DAV:   6    -0.155680960809E+04    0.25807E+00   -0.27854E+00 17656   0.235E+00    0.148E+00
DAV:   7    -0.155676314957E+04    0.46459E-01   -0.56430E-01 16232   0.113E+00    0.965E-01
DAV:   8    -0.155675674710E+04    0.64025E-02   -0.16645E-01 17328   0.471E-01    0.492E-01
DAV:   9    -0.155676286170E+04   -0.61146E-02   -0.69451E-02 17768   0.304E-01    0.302E-01
DAV:  10    -0.155676378133E+04   -0.91963E-03   -0.23053E-02 16656   0.237E-01    0.239E-01
DAV:  11    -0.155676155076E+04    0.22306E-02   -0.10002E-02 17304   0.145E-01    0.949E-02
DAV:  12    -0.155676170180E+04   -0.15104E-03   -0.42116E-03 17664   0.764E-02    0.594E-02
DAV:  13    -0.155676190844E+04   -0.20664E-03   -0.93916E-04 16384   0.443E-02    0.443E-02
DAV:  14    -0.155676195852E+04   -0.50085E-04   -0.44661E-04 16632   0.297E-02    0.201E-02
DAV:  15    -0.155676197754E+04   -0.19020E-04   -0.15412E-04 14768   0.158E-02    0.132E-02
DAV:  16    -0.155676197741E+04    0.13171E-06   -0.32377E-05  7744   0.897E-03
   2 F= -.15567620E+04 E0= -.15567667E+04  d E =0.233119E+02
       N       E                     dE             d eps       ncg     rms          rms(c)
DAV:   1    -0.159889599996E+04   -0.42134E+02   -0.72047E+02 11620   0.448E+01    0.150E+01
DAV:   2    -0.158920073474E+04    0.96953E+01   -0.27327E+01 16547   0.841E+00    0.720E+00
DAV:   3    -0.158747364566E+04    0.17271E+01   -0.14595E+01 16424   0.569E+00    0.540E+00
DAV:   4    -0.158627522537E+04    0.11984E+01   -0.62132E+00 17360   0.445E+00    0.328E+00
DAV:   5    -0.158569482440E+04    0.58040E+00   -0.33793E+00 16784   0.297E+00    0.108E+00
DAV:   6    -0.158567940437E+04    0.15420E-01   -0.69653E-01 15544   0.126E+00    0.699E-01
DAV:   7    -0.158567922794E+04    0.17643E-03   -0.11599E-01 15680   0.532E-01    0.519E-01
DAV:   8    -0.158568262087E+04   -0.33929E-02   -0.37038E-02 15664   0.247E-01    0.258E-01
DAV:   9    -0.158569133036E+04   -0.87095E-02   -0.28076E-02 16408   0.198E-01    0.208E-01
DAV:  10    -0.158569058093E+04    0.74943E-03   -0.52826E-03 16952   0.128E-01    0.134E-01
DAV:  11    -0.158569006100E+04    0.51993E-03   -0.42283E-03 17160   0.866E-02    0.467E-02
DAV:  12    -0.158569044226E+04   -0.38125E-03   -0.12665E-03 16056   0.470E-02    0.454E-02
DAV:  13    -0.158569055192E+04   -0.10967E-03   -0.28877E-04 15176   0.265E-02    0.236E-02
DAV:  14    -0.158569054818E+04    0.37401E-05   -0.98523E-05 13424   0.152E-02
   3 F= -.15856905E+04 E0= -.15856767E+04  d E =-.289286E+02
       N       E                     dE             d eps       ncg     rms          rms(c)
DAV:   1    -0.158581933215E+04   -0.12878E+00   -0.14405E+01 11620   0.501E+00    0.673E-01
DAV:   2    -0.158582788626E+04   -0.85541E-02   -0.24296E-01 17072   0.665E-01    0.499E-01
DAV:   3    -0.158582014191E+04    0.77443E-02   -0.59710E-02 18752   0.401E-01    0.354E-01
DAV:   4    -0.158581677181E+04    0.33701E-02   -0.17040E-02 17568   0.201E-01    0.219E-01
DAV:   5    -0.158581541667E+04    0.13551E-02   -0.10227E-02 15664   0.152E-01    0.955E-02
DAV:   6    -0.158581522220E+04    0.19446E-03   -0.30747E-03 16208   0.958E-02    0.583E-02
DAV:   7    -0.158581512260E+04    0.99605E-04   -0.89384E-04 16224   0.490E-02    0.353E-02
DAV:   8    -0.158581509782E+04    0.24776E-04   -0.22702E-04 15912   0.215E-02    0.207E-02
DAV:   9    -0.158581509579E+04    0.20265E-05   -0.79880E-05 13832   0.149E-02
   4 F= -.15858151E+04 E0= -.15858020E+04  d E =-.124548E+00
       N       E                     dE             d eps       ncg     rms          rms(c)
DAV:   1    -0.158584025078E+04   -0.25153E-01   -0.29121E+00 11620   0.224E+00    0.334E-01
DAV:   2    -0.158584356240E+04   -0.33116E-02   -0.65453E-02 17928   0.400E-01    0.300E-01
DAV:   3    -0.158583841389E+04    0.51485E-02   -0.24465E-02 18600   0.260E-01    0.164E-01
DAV:   4    -0.158583760386E+04    0.81003E-03   -0.43640E-03 17160   0.997E-02    0.112E-01
DAV:   5    -0.158583722258E+04    0.38128E-03   -0.23084E-03 16016   0.742E-02    0.591E-02
DAV:   6    -0.158583710051E+04    0.12207E-03   -0.96484E-04 16168   0.532E-02    0.335E-02
DAV:   7    -0.158583705776E+04    0.42746E-04   -0.28872E-04 15880   0.278E-02    0.185E-02
DAV:   8    -0.158583706010E+04   -0.23376E-05   -0.62948E-05 12336   0.115E-02
   5 F= -.15858371E+04 E0= -.15858235E+04  d E =-.219643E-01
       N       E                     dE             d eps       ncg     rms          rms(c)
DAV:   1    -0.158584484254E+04   -0.77848E-02   -0.52463E-01 11760   0.102E+00    0.215E-01
DAV:   2    -0.158584360768E+04    0.12349E-02   -0.86381E-03 16632   0.133E-01    0.123E-01
DAV:   3    -0.158584337439E+04    0.23329E-03   -0.37784E-03 18864   0.101E-01    0.100E-01
DAV:   4    -0.158584295089E+04    0.42349E-03   -0.16735E-03 17008   0.648E-02    0.478E-02
DAV:   5    -0.158584293399E+04    0.16903E-04   -0.77004E-04 15824   0.431E-02    0.222E-02
DAV:   6    -0.158584292295E+04    0.11039E-04   -0.16295E-04 15024   0.223E-02    0.141E-02
DAV:   7    -0.158584291872E+04    0.42367E-05   -0.30095E-05  7720   0.907E-03
   6 F= -.15858429E+04 E0= -.15858298E+04  d E =-.585861E-02
       N       E                     dE             d eps       ncg     rms          rms(c)
DAV:   1    -0.158584993257E+04   -0.70096E-02   -0.41158E-01 11690   0.864E-01    0.162E-01
DAV:   2    -0.158584995927E+04   -0.26691E-04   -0.10534E-02 18024   0.166E-01    0.132E-01
DAV:   3    -0.158584896948E+04    0.98978E-03   -0.47861E-03 18832   0.115E-01    0.744E-02
DAV:   4    -0.158584874319E+04    0.22629E-03   -0.98160E-04 16648   0.471E-02    0.474E-02
DAV:   5    -0.158584863146E+04    0.11173E-03   -0.49193E-04 15864   0.351E-02    0.242E-02
DAV:   6    -0.158584859710E+04    0.34359E-04   -0.17881E-04 15792   0.232E-02    0.135E-02
DAV:   7    -0.158584858923E+04    0.78725E-05   -0.41347E-05  9664   0.115E-02
   7 F= -.15858486E+04 E0= -.15858352E+04  d E =-.567051E-02
       N       E                     dE             d eps       ncg     rms          rms(c)
DAV:   1    -0.158585110367E+04   -0.25066E-02   -0.28074E-01 11718   0.690E-01    0.782E-02
DAV:   2    -0.158585153568E+04   -0.43201E-03   -0.39527E-03 17448   0.993E-02    0.811E-02
DAV:   3    -0.158585118763E+04    0.34805E-03   -0.13557E-03 18201   0.633E-02    0.447E-02
DAV:   4    -0.158585116698E+04    0.20641E-04   -0.26059E-04 16720   0.237E-02    0.274E-02
DAV:   5    -0.158585115954E+04    0.74444E-05   -0.15501E-04 15384   0.205E-02    0.121E-02
DAV:   6    -0.158585115508E+04    0.44613E-05   -0.46645E-05 10472   0.126E-02
   8 F= -.15858512E+04 E0= -.15858378E+04  d E =-.256585E-02
       N       E                     dE             d eps       ncg     rms          rms(c)
DAV:   1    -0.158585242754E+04   -0.12680E-02   -0.10124E-01 11746   0.424E-01    0.705E-02
DAV:   2    -0.158585241147E+04    0.16065E-04   -0.19517E-03 17912   0.711E-02    0.571E-02
DAV:   3    -0.158585223436E+04    0.17712E-03   -0.84585E-04 18697   0.493E-02    0.338E-02
DAV:   4    -0.158585218126E+04    0.53102E-04   -0.18799E-04 16552   0.202E-02    0.216E-02
DAV:   5    -0.158585214878E+04    0.32476E-04   -0.92668E-05 14232   0.160E-02    0.110E-02
DAV:   6    -0.158585213763E+04    0.11148E-04   -0.28582E-05  8384   0.110E-02    0.535E-03
DAV:   7    -0.158585213712E+04    0.51607E-06   -0.92895E-06  6576   0.604E-03
   9 F= -.15858521E+04 E0= -.15858386E+04  d E =-.982036E-03
       N       E                     dE             d eps       ncg     rms          rms(c)
DAV:   1    -0.158585295124E+04   -0.81361E-03   -0.46255E-02 11760   0.288E-01    0.456E-02
DAV:   2    -0.158585296136E+04   -0.10128E-04   -0.56780E-04 16896   0.350E-02    0.307E-02
DAV:   3    -0.158585294278E+04    0.18583E-04   -0.19563E-04 17234   0.242E-02    0.228E-02
DAV:   4    -0.158585293957E+04    0.32139E-05   -0.64724E-05 12184   0.127E-02    0.106E-02
DAV:   5    -0.158585294806E+04   -0.84896E-05   -0.23421E-05  7864   0.950E-03
  10 F= -.15858529E+04 E0= -.15858395E+04  d E =-.810942E-03
       N       E                     dE             d eps       ncg     rms          rms(c)
DAV:   1    -0.158585369369E+04   -0.75412E-03   -0.71792E-02 11732   0.348E-01    0.390E-02
DAV:   2    -0.158585374735E+04   -0.53663E-04   -0.86505E-04 17592   0.446E-02    0.357E-02
DAV:   3    -0.158585368880E+04    0.58545E-04   -0.25446E-04 17473   0.280E-02    0.226E-02
DAV:   4    -0.158585367295E+04    0.15851E-04   -0.50840E-05 10680   0.111E-02    0.140E-02
DAV:   5    -0.158585366220E+04    0.10755E-04   -0.25759E-05  8048   0.996E-03    0.569E-03
DAV:   6    -0.158585365962E+04    0.25748E-05   -0.85005E-06  6816   0.713E-03
  11 F= -.15858537E+04 E0= -.15858402E+04  d E =-.711567E-03
       N       E                     dE             d eps       ncg     rms          rms(c)
DAV:   1    -0.158585421695E+04   -0.55475E-03   -0.70553E-02 11676   0.345E-01    0.358E-02
DAV:   2    -0.158585427221E+04   -0.55258E-04   -0.66083E-04 16920   0.358E-02    0.289E-02
DAV:   3    -0.158585425361E+04    0.18594E-04   -0.12072E-04 15493   0.197E-02    0.215E-02
DAV:   4    -0.158585425419E+04   -0.57570E-06   -0.49456E-05 11056   0.106E-02    0.777E-03
DAV:   5    -0.158585425667E+04   -0.24796E-05   -0.13794E-05  7419   0.808E-03
  12 F= -.15858543E+04 E0= -.15858408E+04  d E =-.597045E-03
       N       E                     dE             d eps       ncg     rms          rms(c)
DAV:   1    -0.158585447184E+04   -0.21765E-03   -0.63536E-03 11802   0.111E-01    0.247E-02
DAV:   2    -0.158585443269E+04    0.39145E-04   -0.12119E-04 15104   0.170E-02    0.140E-02
DAV:   3    -0.158585442092E+04    0.11773E-04   -0.45475E-05 10096   0.124E-02    0.102E-02
DAV:   4    -0.158585440889E+04    0.12025E-04   -0.14144E-05  7432   0.814E-03    0.563E-03
DAV:   5    -0.158585440028E+04    0.86081E-05   -0.75077E-06  6224   0.524E-03
  13 F= -.15858544E+04 E0= -.15858409E+04  d E =-.143616E-03
       N       E                     dE             d eps       ncg     rms          rms(c)
DAV:   1    -0.158585476130E+04   -0.35241E-03   -0.35535E-02 11718   0.244E-01    0.241E-02
DAV:   2    -0.158585478759E+04   -0.26281E-04   -0.31286E-04 16856   0.237E-02    0.193E-02
DAV:   3    -0.158585478126E+04    0.63238E-05   -0.32868E-05  9027   0.117E-02    0.151E-02
DAV:   4    -0.158585478221E+04   -0.94389E-06   -0.26790E-05  6960   0.838E-03    0.378E-03
DAV:   5    -0.158585478304E+04   -0.83882E-06   -0.72300E-06  6409   0.622E-03
  14 F= -.15858548E+04 E0= -.15858413E+04  d E =-.382760E-03
       N       E                     dE             d eps       ncg     rms          rms(c)
DAV:   1    -0.158585516862E+04   -0.38642E-03   -0.52019E-02 11676   0.295E-01    0.288E-02
DAV:   2    -0.158585519028E+04   -0.21652E-04   -0.47804E-04 16928   0.297E-02    0.233E-02
DAV:   3    -0.158585517662E+04    0.13657E-04   -0.71763E-05 13282   0.155E-02    0.177E-02
DAV:   4    -0.158585516426E+04    0.12356E-04   -0.27279E-05  7560   0.884E-03    0.847E-03
DAV:   5    -0.158585515914E+04    0.51204E-05   -0.12768E-05  6800   0.752E-03
  15 F= -.15858552E+04 E0= -.15858417E+04  d E =-.376097E-03
       N       E                     dE             d eps       ncg     rms          rms(c)
DAV:   1    -0.158585522999E+04   -0.65724E-04   -0.26571E-03 11802   0.725E-02    0.155E-02
DAV:   2    -0.158585523486E+04   -0.48782E-05   -0.31076E-05  7408   0.957E-03    0.808E-03
DAV:   3    -0.158585523912E+04   -0.42545E-05   -0.12699E-05  6760   0.765E-03    0.602E-03
DAV:   4    -0.158585524254E+04   -0.34262E-05   -0.66033E-06  6272   0.554E-03    0.281E-03
DAV:   5    -0.158585524604E+04   -0.34969E-05   -0.36181E-06  6104   0.331E-03
  16 F= -.15858552E+04 E0= -.15858418E+04  d E =-.868998E-04
       N       E                     dE             d eps       ncg     rms          rms(c)
DAV:   1    -0.158585548086E+04   -0.23832E-03   -0.20535E-02 11711   0.186E-01    0.197E-02
DAV:   2    -0.158585548192E+04   -0.10595E-05   -0.19553E-04 16632   0.181E-02    0.146E-02
DAV:   3    -0.158585547611E+04    0.58138E-05   -0.19321E-05  7996   0.902E-03    0.113E-02
DAV:   4    -0.158585546925E+04    0.68625E-05   -0.12540E-05  6536   0.683E-03    0.576E-03
DAV:   5    -0.158585546532E+04    0.39292E-05   -0.67495E-06  6145   0.534E-03
  17 F= -.15858555E+04 E0= -.15858420E+04  d E =-.219275E-03
       N       E                     dE             d eps       ncg     rms          rms(c)
DAV:   1    -0.158585566598E+04   -0.19674E-03   -0.22005E-02 11676   0.192E-01    0.176E-02
DAV:   2    -0.158585568172E+04   -0.15736E-04   -0.18832E-04 16616   0.176E-02    0.138E-02
DAV:   3    -0.158585568034E+04    0.13754E-05   -0.12169E-05  7467   0.740E-03    0.107E-02
DAV:   4    -0.158585568077E+04   -0.42933E-06   -0.12852E-05  6368   0.632E-03    0.247E-03
DAV:   5    -0.158585568109E+04   -0.32233E-06   -0.33012E-06  6104   0.428E-03
  18 F= -.15858557E+04 E0= -.15858422E+04  d E =-.215778E-03
       N       E                     dE             d eps       ncg     rms          rms(c)
DAV:   1    -0.158585587150E+04   -0.19073E-03   -0.21142E-02 11676   0.189E-01    0.202E-02
DAV:   2    -0.158585586816E+04    0.33435E-05   -0.19838E-04 16728   0.183E-02    0.143E-02
DAV:   3    -0.158585586156E+04    0.65990E-05   -0.19854E-05  7948   0.904E-03    0.109E-02
DAV:   4    -0.158585585416E+04    0.74037E-05   -0.11991E-05  6768   0.722E-03    0.588E-03
DAV:   5    -0.158585584914E+04    0.50209E-05   -0.68002E-06  6168   0.538E-03
  19 F= -.15858558E+04 E0= -.15858424E+04  d E =-.168042E-03
       N       E                     dE             d eps       ncg     rms          rms(c)
DAV:   1    -0.158585590119E+04   -0.47037E-04   -0.17040E-03 11802   0.568E-02    0.110E-02
DAV:   2    -0.158585590682E+04   -0.56280E-05   -0.16701E-05  6152   0.705E-03    0.620E-03
DAV:   3    -0.158585590932E+04   -0.25012E-05   -0.68855E-06  6120   0.588E-03    0.477E-03
DAV:   4    -0.158585591270E+04   -0.33775E-05   -0.38804E-06  6104   0.407E-03    0.193E-03
DAV:   5    -0.158585591513E+04   -0.24285E-05   -0.20680E-06  6104   0.249E-03
  20 F= -.15858559E+04 E0= -.15858425E+04  d E =-.659927E-04
       N       E                     dE             d eps       ncg     rms          rms(c)
DAV:   1    -0.158585605345E+04   -0.14075E-03   -0.13528E-02 11690   0.150E-01    0.146E-02
DAV:   2    -0.158585605722E+04   -0.37662E-05   -0.12018E-04 16024   0.137E-02    0.111E-02
DAV:   3    -0.158585605444E+04    0.27772E-05   -0.86712E-06  7025   0.574E-03    0.803E-03
DAV:   4    -0.158585605088E+04    0.35553E-05   -0.67415E-06  6296   0.538E-03    0.305E-03
DAV:   5    -0.158585604980E+04    0.10793E-05   -0.28039E-06  6113   0.391E-03
  21 F= -.15858560E+04 E0= -.15858426E+04  d E =-.134675E-03
       N       E                     dE             d eps       ncg     rms          rms(c)
DAV:   1    -0.158585617645E+04   -0.12556E-03   -0.15633E-02 11676   0.162E-01    0.152E-02
DAV:   2    -0.158585618899E+04   -0.12546E-04   -0.13378E-04 16312   0.145E-02    0.114E-02
DAV:   3    -0.158585618936E+04   -0.36869E-06   -0.88765E-06  7050   0.585E-03    0.811E-03
DAV:   4    -0.158585619083E+04   -0.14698E-05   -0.68499E-06  6344   0.548E-03    0.272E-03
DAV:   5    -0.158585619169E+04   -0.85449E-06   -0.25573E-06  6104   0.361E-03
  22 F= -.15858562E+04 E0= -.15858427E+04  d E =-.141883E-03
       N       E                     dE             d eps       ncg     rms          rms(c)
DAV:   1    -0.158585624271E+04   -0.51877E-04   -0.17557E-03 11788   0.559E-02    0.895E-03
DAV:   2    -0.158585623356E+04    0.91505E-05   -0.15044E-05  6208   0.663E-03    0.505E-03
DAV:   3    -0.158585623093E+04    0.26270E-05   -0.58408E-06  6121   0.518E-03    0.374E-03
DAV:   4    -0.158585622766E+04    0.32764E-05   -0.28252E-06  6104   0.358E-03    0.186E-03
DAV:   5    -0.158585622570E+04    0.19575E-05   -0.17114E-06  6104   0.233E-03
  23 F= -.15858562E+04 E0= -.15858428E+04  d E =-.340112E-04
       N       E                     dE             d eps       ncg     rms          rms(c)
DAV:   1    -0.158585630793E+04   -0.80271E-04   -0.76212E-03 11690   0.113E-01    0.114E-02
DAV:   2    -0.158585631465E+04   -0.67193E-05   -0.64150E-05 12616   0.103E-02    0.845E-03
DAV:   3    -0.158585631571E+04   -0.10631E-05   -0.88038E-06  6434   0.529E-03    0.576E-03
DAV:   4    -0.158585631722E+04   -0.15111E-05   -0.43202E-06  6104   0.430E-03    0.214E-03
DAV:   5    -0.158585631796E+04   -0.74437E-06   -0.19070E-06  6097   0.289E-03
  24 F= -.15858563E+04 E0= -.15858429E+04  d E =-.922667E-04
       N       E                     dE             d eps       ncg     rms          rms(c)
DAV:   1    -0.158585639894E+04   -0.81725E-04   -0.76213E-03 11690   0.113E-01    0.109E-02
DAV:   2    -0.158585639899E+04   -0.40369E-07   -0.63255E-05 12528   0.102E-02    0.810E-03
DAV:   3    -0.158585639720E+04    0.17862E-05   -0.86165E-06  6377   0.527E-03    0.575E-03
DAV:   4    -0.158585639446E+04    0.27430E-05   -0.41667E-06  6104   0.413E-03    0.232E-03
DAV:   5    -0.158585639348E+04    0.97630E-06   -0.19802E-06  6104   0.302E-03
  25 F= -.15858564E+04 E0= -.15858429E+04  d E =-.755156E-04
       N       E                     dE             d eps       ncg     rms          rms(c)
DAV:   1    -0.158585644127E+04   -0.46810E-04   -0.37323E-03 11690   0.794E-02    0.855E-03
DAV:   2    -0.158585644592E+04   -0.46568E-05   -0.22734E-05  7528   0.745E-03    0.573E-03
DAV:   3    -0.158585644801E+04   -0.20829E-05   -0.83562E-06  6149   0.477E-03    0.404E-03
DAV:   4    -0.158585645015E+04   -0.21422E-05   -0.46104E-06  6104   0.386E-03    0.172E-03
DAV:   5    -0.158585645137E+04   -0.12173E-05   -0.26176E-06  6104   0.271E-03
  26 F= -.15858565E+04 E0= -.15858430E+04  d E =-.578854E-04
       N       E                     dE             d eps       ncg     rms          rms(c)
DAV:   1    -0.158585650454E+04   -0.54395E-04   -0.33956E-03 11690   0.756E-02    0.881E-03
DAV:   2    -0.158585649971E+04    0.48297E-05   -0.24244E-05  7808   0.766E-03    0.577E-03
DAV:   3    -0.158585649791E+04    0.18028E-05   -0.86525E-06  6145   0.507E-03    0.400E-03
DAV:   4    -0.158585649566E+04    0.22465E-05   -0.45263E-06  6083   0.396E-03    0.214E-03
DAV:   5    -0.158585649442E+04    0.12431E-05   -0.27569E-06  6083   0.296E-03
  27 F= -.15858565E+04 E0= -.15858430E+04  d E =-.430553E-04
       N       E                     dE             d eps       ncg     rms          rms(c)
DAV:   1    -0.158585653805E+04   -0.42383E-04   -0.35119E-03 11690   0.766E-02    0.780E-03
DAV:   2    -0.158585654152E+04   -0.34729E-05   -0.22472E-05  7624   0.735E-03    0.555E-03
DAV:   3    -0.158585654299E+04   -0.14692E-05   -0.82384E-06  6138   0.468E-03    0.380E-03
DAV:   4    -0.158585654464E+04   -0.16491E-05   -0.47989E-06  6083   0.388E-03    0.130E-03
DAV:   5    -0.158585654526E+04   -0.61972E-06   -0.26389E-06  6083   0.280E-03
  28 F= -.15858565E+04 E0= -.15858431E+04  d E =-.508368E-04
       N       E                     dE             d eps       ncg     rms          rms(c)
DAV:   1    -0.158585659493E+04   -0.50293E-04   -0.43346E-03 11690   0.850E-02    0.856E-03
DAV:   2    -0.158585659307E+04    0.18585E-05   -0.31291E-05  9056   0.820E-03    0.606E-03
DAV:   3    -0.158585659180E+04    0.12770E-05   -0.90153E-06  6169   0.492E-03    0.396E-03
DAV:   4    -0.158585659007E+04    0.17212E-05   -0.47983E-06  6083   0.406E-03    0.183E-03
DAV:   5    -0.158585658951E+04    0.55995E-06   -0.27371E-06  6083   0.307E-03
  29 F= -.15858566E+04 E0= -.15858431E+04  d E =-.442568E-04
       N       E                     dE             d eps       ncg     rms          rms(c)
DAV:   1    -0.158585661352E+04   -0.23450E-04   -0.14915E-03 11690   0.502E-02    0.586E-03
DAV:   2    -0.158585661684E+04   -0.33187E-05   -0.10997E-05  6083   0.524E-03    0.386E-03
DAV:   3    -0.158585661827E+04   -0.14224E-05   -0.44206E-06  6055   0.362E-03    0.278E-03
DAV:   4    -0.158585661980E+04   -0.15375E-05   -0.24424E-06  6083   0.281E-03    0.132E-03
DAV:   5    -0.158585662080E+04   -0.99567E-06   -0.14501E-06  6083   0.206E-03
  30 F= -.15858566E+04 E0= -.15858432E+04  d E =-.312843E-04
       N       E                     dE             d eps       ncg     rms          rms(c)
DAV:   1    -0.158585665740E+04   -0.37599E-04   -0.27539E-03 11690   0.677E-02    0.677E-03
DAV:   2    -0.158585665594E+04    0.14649E-05   -0.16795E-05  7432   0.644E-03    0.481E-03
DAV:   3    -0.158585665517E+04    0.76905E-06   -0.62937E-06  6152   0.404E-03    0.318E-03
DAV:   4    -0.158585665395E+04    0.12169E-05   -0.35814E-06  6083   0.338E-03    0.130E-03
DAV:   5    -0.158585665369E+04    0.25698E-06   -0.20608E-06  6083   0.253E-03
  31 F= -.15858567E+04 E0= -.15858432E+04  d E =-.328959E-04
       N       E                     dE             d eps       ncg     rms          rms(c)
DAV:   1    -0.158585669185E+04   -0.37896E-04   -0.46766E-03 11690   0.883E-02    0.855E-03
DAV:   2    -0.158585669595E+04   -0.40984E-05   -0.32485E-05  9200   0.826E-03    0.621E-03
DAV:   3    -0.158585669742E+04   -0.14738E-05   -0.91435E-06  6192   0.485E-03    0.389E-03
DAV:   4    -0.158585669891E+04   -0.14909E-05   -0.49199E-06  6083   0.407E-03    0.134E-03
DAV:   5    -0.158585669938E+04   -0.47303E-06   -0.26096E-06  6083   0.286E-03
  32 F= -.15858567E+04 E0= -.15858433E+04  d E =-.456892E-04
       N       E                     dE             d eps       ncg     rms          rms(c)
DAV:   1    -0.158585671438E+04   -0.15466E-04   -0.34547E-04 11700   0.251E-02    0.487E-03
DAV:   2    -0.158585670981E+04    0.45689E-05   -0.47641E-06  6083   0.360E-03    0.259E-03
DAV:   3    -0.158585670837E+04    0.14411E-05   -0.21367E-06  6069   0.293E-03    0.191E-03
DAV:   4    -0.158585670697E+04    0.13918E-05   -0.10156E-06  6062   0.198E-03    0.104E-03
DAV:   5    -0.158585670587E+04    0.11005E-05   -0.62917E-07  6062   0.139E-03
  33 F= -.15858567E+04 E0= -.15858433E+04  d E =-.649038E-05
       N       E                     dE             d eps       ncg     rms          rms(c)
DAV:   1    -0.158585673305E+04   -0.26072E-04   -0.24836E-03 11690   0.643E-02    0.615E-03
DAV:   2    -0.158585673460E+04   -0.15541E-05   -0.13857E-05  6499   0.583E-03    0.449E-03
DAV:   3    -0.158585673530E+04   -0.70175E-06   -0.51455E-06  6083   0.355E-03    0.271E-03
DAV:   4    -0.158585673600E+04   -0.69795E-06   -0.29942E-06  6062   0.308E-03    0.754E-04
DAV:   5    -0.158585673611E+04   -0.11342E-06   -0.15570E-06  6062   0.214E-03
  34 F= -.15858567E+04 E0= -.15858433E+04  d E =-.302394E-04
       N       E                     dE             d eps       ncg     rms          rms(c)
DAV:   1    -0.158585679049E+04   -0.54487E-04   -0.12238E-02 11662   0.143E-01    0.135E-02
DAV:   2    -0.158585679392E+04   -0.34313E-05   -0.11108E-04 15880   0.129E-02    0.102E-02
DAV:   3    -0.158585679061E+04    0.33127E-05   -0.77770E-06  6713   0.490E-03    0.634E-03
DAV:   4    -0.158585678785E+04    0.27574E-05   -0.51066E-06  6200   0.481E-03    0.247E-03
DAV:   5    -0.158585678716E+04    0.68347E-06   -0.18728E-06  6099   0.358E-03
  35 F= -.15858568E+04 E0= -.15858433E+04  d E =-.510514E-04
       N       E                     dE             d eps       ncg     rms          rms(c)
DAV:   1    -0.158585675817E+04    0.29682E-04   -0.33467E-03 11676   0.753E-02    0.868E-03
DAV:   2    -0.158585676170E+04   -0.35345E-05   -0.17644E-05  6336   0.681E-03    0.562E-03
DAV:   3    -0.158585676366E+04   -0.19600E-05   -0.60112E-06  6076   0.405E-03    0.343E-03
DAV:   4    -0.158585676535E+04   -0.16939E-05   -0.30396E-06  6083   0.335E-03    0.178E-03
DAV:   5    -0.158585676628E+04   -0.92442E-06   -0.17030E-06  6083   0.241E-03
  36 F= -.15858568E+04 E0= -.15858433E+04  d E =0.208857E-04
       N       E                     dE             d eps       ncg     rms          rms(c)
DAV:   1    -0.158585680135E+04   -0.35995E-04   -0.52326E-03 11676   0.935E-02    0.836E-03
DAV:   2    -0.158585680204E+04   -0.68849E-06   -0.23966E-05  6544   0.782E-03    0.610E-03
DAV:   3    -0.158585680171E+04    0.32928E-06   -0.76489E-06  6083   0.423E-03    0.321E-03
DAV:   4    -0.158585680159E+04    0.12022E-06   -0.40807E-06  6083   0.373E-03    0.113E-03
DAV:   5    -0.158585680167E+04   -0.83679E-07   -0.20042E-06  6062   0.255E-03
  37 F= -.15858568E+04 E0= -.15858434E+04  d E =-.353931E-04
       N       E                     dE             d eps       ncg     rms          rms(c)
DAV:   1    -0.158585687726E+04   -0.75669E-04   -0.52095E-02 11620   0.294E-01    0.268E-02
DAV:   2    -0.158585690347E+04   -0.26213E-04   -0.44300E-04 17064   0.258E-02    0.206E-02
DAV:   3    -0.158585689418E+04    0.92859E-05   -0.30019E-05  8633   0.933E-03    0.107E-02
DAV:   4    -0.158585689124E+04    0.29411E-05   -0.17636E-05  7848   0.944E-03    0.469E-03
DAV:   5    -0.158585688988E+04    0.13604E-05   -0.57277E-06  6505   0.623E-03
  38 F= -.15858569E+04 E0= -.15858435E+04  d E =-.882108E-04
       N       E                     dE             d eps       ncg     rms          rms(c)
DAV:   1    -0.158585692348E+04   -0.32232E-04   -0.51529E-02 11620   0.293E-01    0.261E-02
DAV:   2    -0.158585695095E+04   -0.27479E-04   -0.43563E-04 17048   0.257E-02    0.202E-02
DAV:   3    -0.158585694349E+04    0.74663E-05   -0.26922E-05  8344   0.909E-03    0.121E-02
DAV:   4    -0.158585694032E+04    0.31721E-05   -0.19300E-05  7784   0.932E-03    0.474E-03
DAV:   5    -0.158585693898E+04    0.13350E-05   -0.62864E-06  6552   0.657E-03
  39 F= -.15858569E+04 E0= -.15858435E+04  d E =-.490980E-04
       N       E                     dE             d eps       ncg     rms          rms(c)
DAV:   1    -0.158585694257E+04   -0.22572E-05   -0.20285E-02 11634   0.184E-01    0.161E-02
DAV:   2    -0.158585695583E+04   -0.13252E-04   -0.17733E-04 16544   0.163E-02    0.125E-02
DAV:   3    -0.158585695397E+04    0.18539E-05   -0.10301E-05  6883   0.583E-03    0.812E-03
DAV:   4    -0.158585695382E+04    0.15606E-06   -0.83196E-06  6480   0.592E-03    0.327E-03
DAV:   5    -0.158585695342E+04    0.39431E-06   -0.30281E-06  6192   0.442E-03
  40 F= -.15858570E+04 E0= -.15858435E+04  d E =-.144401E-04
