       N       E                     dE             d eps       ncg     rms          rms(c)
DAV:   1     0.264404565862E+04    0.26440E+04   -0.31251E+05 12372   0.145E+03
DAV:   2    -0.119155414870E+04   -0.38356E+04   -0.36678E+04 14154   0.338E+02
DAV:   3    -0.169494297487E+04   -0.50339E+03   -0.47686E+03 18920   0.830E+01
DAV:   4    -0.172058694824E+04   -0.25644E+02   -0.24741E+02 17448   0.185E+01
DAV:   5    -0.172163275741E+04   -0.10458E+01   -0.10292E+01 19328   0.381E+00    0.457E+01
DAV:   6    -0.166404442935E+04    0.57588E+02   -0.12234E+02 18208   0.145E+01    0.237E+01
DAV:   7    -0.164725110856E+04    0.16793E+02   -0.75532E+01 17312   0.133E+01    0.129E+01
DAV:   8    -0.163959640788E+04    0.76547E+01   -0.32496E+01 16776   0.108E+01    0.385E+00
DAV:   9    -0.163909711189E+04    0.49930E+00   -0.90196E+00 17264   0.512E+00    0.189E+00
DAV:  10    -0.163911226187E+04   -0.15150E-01   -0.15626E+00 16584   0.179E+00    0.136E+00
DAV:  11    -0.163907177865E+04    0.40483E-01   -0.34351E-01 16112   0.797E-01    0.603E-01
DAV:  12    -0.163906212559E+04    0.96531E-02   -0.52441E-02 16400   0.365E-01    0.279E-01
DAV:  13    -0.163905990224E+04    0.22234E-02   -0.14770E-02 16208   0.179E-01    0.887E-02
DAV:  14    -0.163905987859E+04    0.23644E-04   -0.31712E-03 15592   0.904E-02    0.429E-02
DAV:  15    -0.163905988412E+04   -0.55271E-05   -0.73998E-04 15016   0.466E-02    0.235E-02
DAV:  16    -0.163905986753E+04    0.16589E-04   -0.15954E-04 16008   0.202E-02    0.116E-02
DAV:  17    -0.163905985467E+04    0.12864E-04   -0.33566E-05  9320   0.103E-02    0.594E-03
DAV:  18    -0.163905984669E+04    0.79812E-05   -0.14351E-05  8120   0.595E-03
   1 F= -.16390598E+04 E0= -.16390614E+04  d E =-.163906E+04
       N       E                     dE             d eps       ncg     rms          rms(c)
DAV:   1    -0.163987107937E+04   -0.81122E+00   -0.25420E+02 12348   0.209E+01    0.483E+00
DAV:   2    -0.163904699067E+04    0.82409E+00   -0.59192E+00 16984   0.331E+00    0.238E+00
DAV:   3    -0.163883452429E+04    0.21247E+00   -0.12546E+00 16416   0.166E+00    0.147E+00
DAV:   4    -0.163875210996E+04    0.82414E-01   -0.38983E-01 16312   0.117E+00    0.614E-01
DAV:   5    -0.163873601487E+04    0.16095E-01   -0.14936E-01 15688   0.731E-01    0.263E-01
DAV:   6    -0.163873739566E+04   -0.13808E-02   -0.31303E-02 16256   0.269E-01    0.198E-01
DAV:   7    -0.163873754324E+04   -0.14758E-03   -0.62906E-03 15704   0.112E-01    0.110E-01
DAV:   8    -0.163873788586E+04   -0.34263E-03   -0.22077E-03 16016   0.724E-02    0.544E-02
DAV:   9    -0.163873776579E+04    0.12007E-03   -0.57079E-04 16472   0.444E-02    0.274E-02
DAV:  10    -0.163873773139E+04    0.34401E-04   -0.30733E-04 17320   0.226E-02    0.121E-02
DAV:  11    -0.163873773844E+04   -0.70549E-05   -0.28575E-05  8936   0.861E-03
   2 F= -.16387377E+04 E0= -.16387299E+04  d E =0.322108E+00
       N       E                     dE             d eps       ncg     rms          rms(c)
DAV:   1    -0.164068581018E+04   -0.19481E+01   -0.43590E+01 12348   0.105E+01    0.362E+00
DAV:   2    -0.164006184116E+04    0.62397E+00   -0.96856E-01 13000   0.144E+00    0.168E+00
DAV:   3    -0.163991103992E+04    0.15080E+00   -0.37833E-01 13976   0.960E-01    0.603E-01
DAV:   4    -0.163989277681E+04    0.18263E-01   -0.10502E-01 15288   0.594E-01    0.183E-01
DAV:   5    -0.163989192229E+04    0.85452E-03   -0.25923E-02 15512   0.311E-01    0.942E-02
DAV:   6    -0.163989262080E+04   -0.69851E-03   -0.52868E-03 16048   0.113E-01    0.657E-02
DAV:   7    -0.163989300130E+04   -0.38049E-03   -0.10256E-03 16160   0.451E-02    0.377E-02
DAV:   8    -0.163989321926E+04   -0.21796E-03   -0.28222E-04 14704   0.250E-02    0.186E-02
DAV:   9    -0.163989328873E+04   -0.69472E-04   -0.10512E-04 14472   0.158E-02    0.921E-03
DAV:  10    -0.163989331466E+04   -0.25933E-04   -0.39867E-05 10024   0.994E-03    0.404E-03
DAV:  11    -0.163989331438E+04    0.27908E-06   -0.79020E-06  7344   0.446E-03
   3 F= -.16398933E+04 E0= -.16398938E+04  d E =-.115558E+01
       N       E                     dE             d eps       ncg     rms          rms(c)
DAV:   1    -0.164000537776E+04   -0.11206E+00   -0.84595E+00 12348   0.385E+00    0.768E-01
DAV:   2    -0.163999204160E+04    0.13336E-01   -0.14409E-01 17672   0.561E-01    0.429E-01
DAV:   3    -0.163998650752E+04    0.55341E-02   -0.33900E-02 17680   0.301E-01    0.275E-01
DAV:   4    -0.163998285661E+04    0.36509E-02   -0.14534E-02 16744   0.230E-01    0.920E-02
DAV:   5    -0.163998253675E+04    0.31986E-03   -0.43383E-03 15920   0.116E-01    0.465E-02
DAV:   6    -0.163998258680E+04   -0.50046E-04   -0.79748E-04 16832   0.393E-02    0.342E-02
DAV:   7    -0.163998258780E+04   -0.10058E-05   -0.15098E-04 16056   0.179E-02    0.197E-02
DAV:   8    -0.163998259386E+04   -0.60588E-05   -0.69718E-05 14512   0.135E-02
   4 F= -.16399826E+04 E0= -.16399822E+04  d E =-.892795E-01
       N       E                     dE             d eps       ncg     rms          rms(c)
DAV:   1    -0.163998570419E+04   -0.31164E-02   -0.71654E-01 12418   0.106E+00    0.145E-01
DAV:   2    -0.163998606359E+04   -0.35941E-03   -0.12986E-02 17560   0.163E-01    0.839E-02
DAV:   3    -0.163998594558E+04    0.11802E-03   -0.17607E-03 17510   0.701E-02    0.601E-02
DAV:   4    -0.163998587732E+04    0.68253E-04   -0.40807E-04 18072   0.394E-02    0.351E-02
DAV:   5    -0.163998585177E+04    0.25555E-04   -0.22514E-04 15056   0.227E-02    0.894E-03
DAV:   6    -0.163998585067E+04    0.11042E-05   -0.25060E-05  8632   0.832E-03
   5 F= -.16399859E+04 E0= -.16399854E+04  d E =-.325680E-02
       N       E                     dE             d eps       ncg     rms          rms(c)
DAV:   1    -0.163998646714E+04   -0.61537E-03   -0.59053E-02 12600   0.316E-01    0.619E-02
DAV:   2    -0.163998641983E+04    0.47311E-04   -0.10925E-03 17176   0.507E-02    0.319E-02
DAV:   3    -0.163998640910E+04    0.10732E-04   -0.23038E-04 18064   0.260E-02    0.216E-02
DAV:   4    -0.163998640760E+04    0.14924E-05   -0.73690E-05 14976   0.171E-02    0.102E-02
DAV:   5    -0.163998641712E+04   -0.95136E-05   -0.28949E-05  7984   0.924E-03
   6 F= -.16399864E+04 E0= -.16399861E+04  d E =-.566452E-03
       N       E                     dE             d eps       ncg     rms          rms(c)
DAV:   1    -0.163998663532E+04   -0.22772E-03   -0.21919E-02 12600   0.190E-01    0.297E-02
DAV:   2    -0.163998660622E+04    0.29107E-04   -0.27315E-04 16072   0.318E-02    0.179E-02
DAV:   3    -0.163998658941E+04    0.16811E-04   -0.66755E-05 13440   0.162E-02    0.129E-02
DAV:   4    -0.163998657178E+04    0.17628E-04   -0.19834E-05  7888   0.878E-03    0.419E-03
DAV:   5    -0.163998656797E+04    0.38136E-05   -0.79267E-06  6984   0.489E-03
   7 F= -.16399866E+04 E0= -.16399862E+04  d E =-.150849E-03
       N       E                     dE             d eps       ncg     rms          rms(c)
DAV:   1    -0.163998662058E+04   -0.48802E-04   -0.57815E-03 12600   0.989E-02    0.174E-02
DAV:   2    -0.163998662723E+04   -0.66489E-05   -0.61927E-05 14592   0.141E-02    0.102E-02
DAV:   3    -0.163998662968E+04   -0.24472E-05   -0.14272E-05  8584   0.752E-03    0.680E-03
DAV:   4    -0.163998663699E+04   -0.73143E-05   -0.80250E-06  6896   0.517E-03    0.138E-03
DAV:   5    -0.163998663824E+04   -0.12446E-05   -0.25726E-06  6864   0.314E-03
   8 F= -.16399866E+04 E0= -.16399863E+04  d E =-.702708E-04
       N       E                     dE             d eps       ncg     rms          rms(c)
DAV:   1    -0.163998668658E+04   -0.49588E-04   -0.29048E-03 12600   0.696E-02    0.118E-02
DAV:   2    -0.163998667460E+04    0.11978E-04   -0.24665E-05  9080   0.103E-02    0.695E-03
DAV:   3    -0.163998667011E+04    0.44883E-05   -0.77875E-06  7120   0.713E-03    0.462E-03
DAV:   4    -0.163998666381E+04    0.63053E-05   -0.55808E-06  6840   0.457E-03    0.115E-03
DAV:   5    -0.163998666330E+04    0.50953E-06   -0.22285E-06  6792   0.303E-03
   9 F= -.16399867E+04 E0= -.16399863E+04  d E =-.250623E-04
       N       E                     dE             d eps       ncg     rms          rms(c)
DAV:   1    -0.163998668168E+04   -0.17871E-04   -0.22399E-03 12600   0.597E-02    0.748E-03
DAV:   2    -0.163998668521E+04   -0.35271E-05   -0.15942E-05  7216   0.774E-03    0.498E-03
DAV:   3    -0.163998668642E+04   -0.12168E-05   -0.50032E-06  6864   0.500E-03    0.342E-03
DAV:   4    -0.163998668933E+04   -0.29074E-05   -0.36130E-06  6648   0.352E-03    0.663E-04
DAV:   5    -0.163998668945E+04   -0.12156E-06   -0.16626E-06  6632   0.252E-03
  10 F= -.16399867E+04 E0= -.16399864E+04  d E =-.261535E-04
       N       E                     dE             d eps       ncg     rms          rms(c)
DAV:   1    -0.163998670587E+04   -0.16536E-04   -0.11137E-03 12600   0.423E-02    0.597E-03
DAV:   2    -0.163998670173E+04    0.41357E-05   -0.86370E-06  6744   0.536E-03    0.372E-03
DAV:   3    -0.163998669993E+04    0.17989E-05   -0.31574E-06  6576   0.374E-03    0.235E-03
DAV:   4    -0.163998669753E+04    0.24005E-05   -0.19899E-06  6552   0.279E-03    0.642E-04
DAV:   5    -0.163998669736E+04    0.16876E-06   -0.10390E-06  6552   0.192E-03
  11 F= -.16399867E+04 E0= -.16399864E+04  d E =-.791022E-05
       N       E                     dE             d eps       ncg     rms          rms(c)
DAV:   1    -0.163998670367E+04   -0.61432E-05   -0.62492E-04 12600   0.318E-02    0.454E-03
DAV:   2    -0.163998670628E+04   -0.26031E-05   -0.47294E-06  6552   0.373E-03    0.283E-03
DAV:   3    -0.163998670808E+04   -0.18070E-05   -0.18886E-06  6552   0.258E-03    0.137E-03
DAV:   4    -0.163998670941E+04   -0.13304E-05   -0.10396E-06  6552   0.209E-03    0.452E-04
DAV:   5    -0.163998670962E+04   -0.20511E-06   -0.57639E-07  6552   0.140E-03
  12 F= -.16399867E+04 E0= -.16399864E+04  d E =-.122576E-04
       N       E                     dE             d eps       ncg     rms          rms(c)
DAV:   1    -0.163998671955E+04   -0.10135E-04   -0.80930E-04 12600   0.357E-02    0.410E-03
DAV:   2    -0.163998671803E+04    0.15193E-05   -0.51914E-06  6600   0.393E-03    0.282E-03
DAV:   3    -0.163998671711E+04    0.91724E-06   -0.18182E-06  6552   0.247E-03    0.161E-03
DAV:   4    -0.163998671600E+04    0.11175E-05   -0.11043E-06  6552   0.202E-03    0.322E-04
DAV:   5    -0.163998671614E+04   -0.14072E-06   -0.57625E-07  6552   0.140E-03
  13 F= -.16399867E+04 E0= -.16399864E+04  d E =-.651652E-05
       N       E                     dE             d eps       ncg     rms          rms(c)
DAV:   1    -0.163998672043E+04   -0.44299E-05   -0.61258E-04 12600   0.312E-02    0.384E-03
DAV:   2    -0.163998672239E+04   -0.19609E-05   -0.40843E-06  6648   0.337E-03    0.255E-03
DAV:   3    -0.163998672400E+04   -0.16184E-05   -0.16401E-06  6600   0.210E-03    0.896E-04
DAV:   4    -0.163998672474E+04   -0.73883E-06   -0.80058E-07  6552   0.172E-03    0.348E-04
DAV:   5    -0.163998672477E+04   -0.30351E-07   -0.44845E-07  6552   0.122E-03
  14 F= -.16399867E+04 E0= -.16399864E+04  d E =-.863770E-05
       N       E                     dE             d eps       ncg     rms          rms(c)
DAV:   1    -0.163998673033E+04   -0.55823E-05   -0.19884E-04 12376   0.181E-02    0.290E-03
DAV:   2    -0.163998672808E+04    0.22453E-05   -0.17277E-06  6552   0.218E-03    0.170E-03
DAV:   3    -0.163998672653E+04    0.15477E-05   -0.74514E-07  6552   0.147E-03    0.689E-04
DAV:   4    -0.163998672586E+04    0.67745E-06   -0.36112E-07  6552   0.120E-03    0.300E-04
DAV:   5    -0.163998672571E+04    0.14552E-06   -0.20364E-07  6552   0.823E-04
  15 F= -.16399867E+04 E0= -.16399864E+04  d E =-.935928E-06
       N       E                     dE             d eps       ncg     rms          rms(c)
DAV:   1    -0.163998672907E+04   -0.32120E-05   -0.40527E-04 12520   0.253E-02    0.278E-03
DAV:   2    -0.163998673005E+04   -0.98020E-06   -0.24654E-06  6552   0.262E-03    0.195E-03
DAV:   3    -0.163998673097E+04   -0.92445E-06   -0.98181E-07  6552   0.153E-03    0.448E-04
DAV:   4    -0.163998673123E+04   -0.26016E-06   -0.43846E-07  6552   0.119E-03    0.214E-04
DAV:   5    -0.163998673119E+04    0.42465E-07   -0.24787E-07  6552   0.876E-04
  16 F= -.16399867E+04 E0= -.16399864E+04  d E =-.547984E-05
       N       E                     dE             d eps       ncg     rms          rms(c)
DAV:   1    -0.163998673626E+04   -0.50308E-05   -0.48694E-04 12592   0.277E-02    0.318E-03
DAV:   2    -0.163998673493E+04    0.13291E-05   -0.30112E-06  6552   0.289E-03    0.217E-03
DAV:   3    -0.163998673369E+04    0.12462E-05   -0.11604E-06  6552   0.169E-03    0.697E-04
DAV:   4    -0.163998673326E+04    0.42462E-06   -0.54847E-07  6552   0.136E-03    0.267E-04
DAV:   5    -0.163998673333E+04   -0.70088E-07   -0.30335E-07  6552   0.995E-04
  17 F= -.16399867E+04 E0= -.16399864E+04  d E =-.214347E-05
       N       E                     dE             d eps       ncg     rms          rms(c)
DAV:   1    -0.163998673270E+04    0.56572E-06   -0.34807E-05  9896   0.825E-03    0.201E-03
DAV:   2    -0.163998673444E+04   -0.17378E-05   -0.12804E-06  6632   0.197E-03    0.100E-03
DAV:   3    -0.163998673583E+04   -0.13973E-05   -0.33254E-07  6552   0.880E-04    0.366E-04
DAV:   4    -0.163998673635E+04   -0.52247E-06   -0.13286E-07  6552   0.664E-04    0.145E-04
DAV:   5    -0.163998673650E+04   -0.14297E-06   -0.67567E-08  6552   0.431E-04
  18 F= -.16399867E+04 E0= -.16399864E+04  d E =-.316467E-05
       N       E                     dE             d eps       ncg     rms          rms(c)
DAV:   1    -0.163998673955E+04   -0.31907E-05   -0.24951E-04 12416   0.198E-02    0.213E-03
DAV:   2    -0.163998673898E+04    0.56559E-06   -0.14865E-06  6552   0.203E-03    0.150E-03
DAV:   3    -0.163998673829E+04    0.69029E-06   -0.56303E-07  6552   0.112E-03    0.311E-04
DAV:   4    -0.163998673817E+04    0.11570E-06   -0.24166E-07  6552   0.835E-04    0.160E-04
DAV:   5    -0.163998673823E+04   -0.55140E-07   -0.13343E-07  6552   0.624E-04
  19 F= -.16399867E+04 E0= -.16399864E+04  d E =-.173127E-05
       N       E                     dE             d eps       ncg     rms          rms(c)
DAV:   1    -0.163998673999E+04   -0.18119E-05   -0.48177E-04 12568   0.275E-02    0.295E-03
DAV:   2    -0.163998674097E+04   -0.98105E-06   -0.27840E-06  6552   0.278E-03    0.209E-03
DAV:   3    -0.163998674195E+04   -0.98631E-06   -0.11292E-06  6544   0.155E-03    0.312E-04
DAV:   4    -0.163998674208E+04   -0.12458E-06   -0.46034E-07  6552   0.105E-03    0.187E-04
DAV:   5    -0.163998674206E+04    0.15487E-07   -0.24898E-07  6552   0.805E-04
  20 F= -.16399867E+04 E0= -.16399864E+04  d E =-.383319E-05
       N       E                     dE             d eps       ncg     rms          rms(c)
DAV:   1    -0.163998674354E+04   -0.14638E-05   -0.21801E-05  6848   0.699E-03    0.177E-03
DAV:   2    -0.163998674177E+04    0.17737E-05   -0.11289E-06  6552   0.210E-03    0.907E-04
DAV:   3    -0.163998674020E+04    0.15650E-05   -0.16220E-07  6552   0.613E-04    0.334E-04
DAV:   4    -0.163998673969E+04    0.51047E-06   -0.44941E-08  6552   0.445E-04    0.118E-04
DAV:   5    -0.163998673956E+04    0.13418E-06   -0.19712E-08  6552   0.242E-04
  21 F= -.16399867E+04 E0= -.16399864E+04  d E =0.250401E-05
       N       E                     dE             d eps       ncg     rms          rms(c)
DAV:   1    -0.163998674067E+04   -0.97802E-06   -0.19556E-04 12360   0.176E-02    0.184E-03
DAV:   2    -0.163998674126E+04   -0.58655E-06   -0.11091E-06  6528   0.174E-03    0.130E-03
DAV:   3    -0.163998674192E+04   -0.66489E-06   -0.41794E-07  6528   0.928E-04    0.181E-04
DAV:   4    -0.163998674196E+04   -0.33701E-07   -0.15786E-07  6528   0.601E-04    0.111E-04
DAV:   5    -0.163998674194E+04    0.12307E-07   -0.83469E-08  6528   0.456E-04
  22 F= -.16399867E+04 E0= -.16399864E+04  d E =-.238504E-05
       N       E                     dE             d eps       ncg     rms          rms(c)
DAV:   1    -0.163998674389E+04   -0.19303E-05   -0.34193E-04 12480   0.232E-02    0.240E-03
DAV:   2    -0.163998674350E+04    0.38576E-06   -0.19749E-06  6528   0.235E-03    0.173E-03
DAV:   3    -0.163998674291E+04    0.58674E-06   -0.78821E-07  6528   0.130E-03    0.234E-04
DAV:   4    -0.163998674291E+04    0.45288E-08   -0.31897E-07  6528   0.888E-04    0.159E-04
DAV:   5    -0.163998674295E+04   -0.42884E-07   -0.17489E-07  6528   0.685E-04
  23 F= -.16399867E+04 E0= -.16399864E+04  d E =-.100846E-05
