       N       E                     dE             d eps       ncg     rms          rms(c)
DAV:   1     0.243892310930E+04    0.24389E+04   -0.30238E+05 12056   0.144E+03
DAV:   2    -0.120138638615E+04   -0.36403E+04   -0.34883E+04 13924   0.321E+02
DAV:   3    -0.166694006269E+04   -0.46555E+03   -0.43655E+03 18472   0.821E+01
DAV:   4    -0.169175349400E+04   -0.24813E+02   -0.23641E+02 16984   0.180E+01
DAV:   5    -0.169276183146E+04   -0.10083E+01   -0.99231E+00 18736   0.391E+00    0.433E+01
DAV:   6    -0.164338237476E+04    0.49379E+02   -0.11923E+02 18168   0.151E+01    0.234E+01
DAV:   7    -0.163222537870E+04    0.11157E+02   -0.89818E+01 19464   0.162E+01    0.167E+01
DAV:   8    -0.161882871609E+04    0.13397E+02   -0.55010E+01 17984   0.123E+01    0.625E+00
DAV:   9    -0.161730570486E+04    0.15230E+01   -0.17151E+01 17080   0.640E+00    0.216E+00
DAV:  10    -0.161733664924E+04   -0.30944E-01   -0.22785E+00 15648   0.223E+00    0.150E+00
DAV:  11    -0.161730396612E+04    0.32683E-01   -0.35821E-01 16288   0.861E-01    0.915E-01
DAV:  12    -0.161728268836E+04    0.21278E-01   -0.16261E-01 14880   0.661E-01    0.480E-01
DAV:  13    -0.161727545797E+04    0.72304E-02   -0.34026E-02 14960   0.318E-01    0.238E-01
DAV:  14    -0.161727383012E+04    0.16278E-02   -0.91639E-03 15008   0.142E-01    0.108E-01
DAV:  15    -0.161727357165E+04    0.25848E-03   -0.22859E-03 15280   0.793E-02    0.581E-02
DAV:  16    -0.161727353595E+04    0.35700E-04   -0.10052E-03 14704   0.492E-02    0.263E-02
DAV:  17    -0.161727353483E+04    0.11151E-05   -0.17522E-04 14744   0.212E-02    0.103E-02
DAV:  18    -0.161727353078E+04    0.40522E-05   -0.36735E-05  9152   0.105E-02
   1 F= -.16172735E+04 E0= -.16172712E+04  d E =-.161727E+04
       N       E                     dE             d eps       ncg     rms          rms(c)
DAV:   1    -0.161920392295E+04   -0.19304E+01   -0.69336E+02 12040   0.379E+01    0.123E+01
DAV:   2    -0.161232513537E+04    0.68788E+01   -0.25122E+01 17168   0.672E+00    0.595E+00
DAV:   3    -0.161107584984E+04    0.12493E+01   -0.10029E+01 18560   0.484E+00    0.428E+00
DAV:   4    -0.161015019118E+04    0.92566E+00   -0.38888E+00 18808   0.353E+00    0.245E+00
DAV:   5    -0.160985199284E+04    0.29820E+00   -0.22334E+00 16016   0.222E+00    0.772E-01
DAV:   6    -0.160985272153E+04   -0.72869E-03   -0.28256E-01 14896   0.818E-01    0.512E-01
DAV:   7    -0.160985248088E+04    0.24065E-03   -0.51492E-02 16192   0.322E-01    0.323E-01
DAV:   8    -0.160985393248E+04   -0.14516E-02   -0.25070E-02 16736   0.214E-01    0.177E-01
DAV:   9    -0.160985428574E+04   -0.35326E-03   -0.70274E-03 14480   0.131E-01    0.115E-01
DAV:  10    -0.160985377336E+04    0.51238E-03   -0.27671E-03 16688   0.720E-02    0.498E-02
DAV:  11    -0.160985375102E+04    0.22340E-04   -0.91541E-04 17712   0.425E-02    0.337E-02
DAV:  12    -0.160985378978E+04   -0.38759E-04   -0.31616E-04 15240   0.261E-02    0.229E-02
DAV:  13    -0.160985379023E+04   -0.44997E-06   -0.91805E-05 14224   0.123E-02
   2 F= -.16098538E+04 E0= -.16098431E+04  d E =0.741974E+01
       N       E                     dE             d eps       ncg     rms          rms(c)
DAV:   1    -0.162459485889E+04   -0.14741E+02   -0.25354E+02 12040   0.259E+01    0.889E+00
DAV:   2    -0.162082031625E+04    0.37745E+01   -0.72577E+00 14116   0.408E+00    0.408E+00
DAV:   3    -0.162013632541E+04    0.68399E+00   -0.26941E+00 15280   0.277E+00    0.244E+00
DAV:   4    -0.161978201684E+04    0.35431E+00   -0.12209E+00 16160   0.233E+00    0.112E+00
DAV:   5    -0.161972055954E+04    0.61457E-01   -0.57807E-01 14824   0.124E+00    0.352E-01
DAV:   6    -0.161972417117E+04   -0.36116E-02   -0.75571E-02 14776   0.427E-01    0.235E-01
DAV:   7    -0.161972580090E+04   -0.16297E-02   -0.13259E-02 15744   0.161E-01    0.134E-01
DAV:   8    -0.161972714193E+04   -0.13410E-02   -0.46050E-03 15184   0.104E-01    0.780E-02
DAV:   9    -0.161972735304E+04   -0.21111E-03   -0.13516E-03 14536   0.573E-02    0.443E-02
DAV:  10    -0.161972748367E+04   -0.13063E-03   -0.89124E-04 16584   0.402E-02    0.267E-02
DAV:  11    -0.161972756235E+04   -0.78684E-04   -0.13192E-04 14584   0.185E-02    0.200E-02
DAV:  12    -0.161972755604E+04    0.63185E-05   -0.36213E-05  9424   0.106E-02
   3 F= -.16197276E+04 E0= -.16197315E+04  d E =-.987377E+01
       N       E                     dE             d eps       ncg     rms          rms(c)
DAV:   1    -0.161978607813E+04   -0.58516E-01   -0.10592E+01 12040   0.417E+00    0.565E-01
DAV:   2    -0.161979473312E+04   -0.86550E-02   -0.19672E-01 17664   0.680E-01    0.400E-01
DAV:   3    -0.161978779498E+04    0.69381E-02   -0.48410E-02 18320   0.390E-01    0.274E-01
DAV:   4    -0.161978593084E+04    0.18641E-02   -0.96415E-03 17568   0.151E-01    0.151E-01
DAV:   5    -0.161978531227E+04    0.61857E-03   -0.49205E-03 16240   0.101E-01    0.455E-02
DAV:   6    -0.161978527540E+04    0.36877E-04   -0.78698E-04 15752   0.476E-02    0.285E-02
DAV:   7    -0.161978526178E+04    0.13611E-04   -0.16378E-04 15160   0.221E-02    0.193E-02
DAV:   8    -0.161978525912E+04    0.26683E-05   -0.64560E-05 13336   0.117E-02
   4 F= -.16197853E+04 E0= -.16197898E+04  d E =-.577031E-01
       N       E                     dE             d eps       ncg     rms          rms(c)
DAV:   1    -0.161979328875E+04   -0.80270E-02   -0.11449E+00 12094   0.138E+00    0.163E-01
DAV:   2    -0.161979436451E+04   -0.10758E-02   -0.16242E-02 17128   0.232E-01    0.131E-01
DAV:   3    -0.161979344270E+04    0.92181E-03   -0.47605E-03 18562   0.125E-01    0.866E-02
DAV:   4    -0.161979326210E+04    0.18060E-03   -0.10900E-03 16104   0.503E-02    0.310E-02
DAV:   5    -0.161979325470E+04    0.74029E-05   -0.34052E-04 15560   0.277E-02    0.123E-02
DAV:   6    -0.161979324981E+04    0.48863E-05   -0.50052E-05 11848   0.130E-02
   5 F= -.16197932E+04 E0= -.16197982E+04  d E =-.799070E-02
       N       E                     dE             d eps       ncg     rms          rms(c)
DAV:   1    -0.161979568579E+04   -0.24311E-02   -0.28308E-01 12186   0.708E-01    0.138E-01
DAV:   2    -0.161979527696E+04    0.40883E-03   -0.52507E-03 16496   0.138E-01    0.911E-02
DAV:   3    -0.161979478328E+04    0.49367E-03   -0.22234E-03 17172   0.885E-02    0.592E-02
DAV:   4    -0.161979456522E+04    0.21806E-03   -0.52244E-04 15312   0.388E-02    0.222E-02
DAV:   5    -0.161979451955E+04    0.45673E-04   -0.17586E-04 14712   0.204E-02    0.867E-03
DAV:   6    -0.161979451592E+04    0.36266E-05   -0.23170E-05  8416   0.933E-03
   6 F= -.16197945E+04 E0= -.16197997E+04  d E =-.126611E-02
       N       E                     dE             d eps       ncg     rms          rms(c)
DAV:   1    -0.161979680379E+04   -0.22842E-02   -0.16397E-01 12172   0.541E-01    0.106E-01
DAV:   2    -0.161979657853E+04    0.22526E-03   -0.22642E-03 15904   0.833E-02    0.616E-02
DAV:   3    -0.161979648295E+04    0.95582E-04   -0.88791E-04 18206   0.536E-02    0.457E-02
DAV:   4    -0.161979642533E+04    0.57622E-04   -0.30515E-04 16192   0.299E-02    0.164E-02
DAV:   5    -0.161979644460E+04   -0.19273E-04   -0.10426E-04 13626   0.149E-02    0.635E-03
DAV:   6    -0.161979644487E+04   -0.27132E-06   -0.88859E-06  7072   0.580E-03
   7 F= -.16197964E+04 E0= -.16198015E+04  d E =-.192895E-02
       N       E                     dE             d eps       ncg     rms          rms(c)
DAV:   1    -0.161979692837E+04   -0.48377E-03   -0.44348E-02 12184   0.273E-01    0.403E-02
DAV:   2    -0.161979691405E+04    0.14320E-04   -0.60561E-04 17032   0.440E-02    0.280E-02
DAV:   3    -0.161979687518E+04    0.38870E-04   -0.19926E-04 17542   0.257E-02    0.196E-02
DAV:   4    -0.161979684968E+04    0.25491E-04   -0.38734E-05  9728   0.113E-02    0.778E-03
DAV:   5    -0.161979684209E+04    0.75905E-05   -0.15763E-05  6832   0.684E-03
   8 F= -.16197968E+04 E0= -.16198020E+04  d E =-.397222E-03
       N       E                     dE             d eps       ncg     rms          rms(c)
DAV:   1    -0.161979706695E+04   -0.21726E-03   -0.24614E-02 12196   0.201E-01    0.238E-02
DAV:   2    -0.161979708804E+04   -0.21092E-04   -0.26220E-04 17192   0.264E-02    0.177E-02
DAV:   3    -0.161979707920E+04    0.88345E-05   -0.53409E-05 11906   0.147E-02    0.130E-02
DAV:   4    -0.161979708328E+04   -0.40789E-05   -0.21361E-05  7128   0.738E-03    0.300E-03
DAV:   5    -0.161979708513E+04   -0.18468E-05   -0.53230E-06  6536   0.460E-03
   9 F= -.16197971E+04 E0= -.16198022E+04  d E =-.243034E-03
       N       E                     dE             d eps       ncg     rms          rms(c)
DAV:   1    -0.161979723519E+04   -0.15191E-03   -0.11496E-02 12208   0.139E-01    0.204E-02
DAV:   2    -0.161979721818E+04    0.17009E-04   -0.12789E-04 15808   0.188E-02    0.134E-02
DAV:   3    -0.161979720794E+04    0.10237E-04   -0.34313E-05  9928   0.117E-02    0.959E-03
DAV:   4    -0.161979719585E+04    0.12087E-04   -0.12196E-05  6680   0.652E-03    0.345E-03
DAV:   5    -0.161979719171E+04    0.41494E-05   -0.51236E-06  6488   0.408E-03
  10 F= -.16197972E+04 E0= -.16198024E+04  d E =-.106578E-03
       N       E                     dE             d eps       ncg     rms          rms(c)
DAV:   1    -0.161979728370E+04   -0.87848E-04   -0.65459E-03 12208   0.105E-01    0.152E-02
DAV:   2    -0.161979729083E+04   -0.71296E-05   -0.59883E-05 13320   0.116E-02    0.933E-03
DAV:   3    -0.161979729355E+04   -0.27164E-05   -0.12555E-05  7552   0.672E-03    0.647E-03
DAV:   4    -0.161979729818E+04   -0.46266E-05   -0.52781E-06  6504   0.477E-03    0.201E-03
DAV:   5    -0.161979730077E+04   -0.25965E-05   -0.27012E-06  6464   0.278E-03
  11 F= -.16197973E+04 E0= -.16198025E+04  d E =-.109067E-03
       N       E                     dE             d eps       ncg     rms          rms(c)
DAV:   1    -0.161979739984E+04   -0.10166E-03   -0.91894E-03 12196   0.122E-01    0.134E-02
DAV:   2    -0.161979739808E+04    0.17569E-05   -0.81075E-05 14600   0.131E-02    0.978E-03
DAV:   3    -0.161979739493E+04    0.31531E-05   -0.12801E-05  7554   0.688E-03    0.742E-03
DAV:   4    -0.161979738912E+04    0.58058E-05   -0.71530E-06  6464   0.452E-03    0.163E-03
DAV:   5    -0.161979738841E+04    0.71494E-06   -0.22086E-06  6448   0.299E-03
  12 F= -.16197974E+04 E0= -.16198026E+04  d E =-.876363E-04
       N       E                     dE             d eps       ncg     rms          rms(c)
DAV:   1    -0.161979745431E+04   -0.65189E-04   -0.69632E-03 12196   0.106E-01    0.120E-02
DAV:   2    -0.161979746151E+04   -0.72003E-05   -0.56607E-05 12560   0.104E-02    0.832E-03
DAV:   3    -0.161979746349E+04   -0.19718E-05   -0.92952E-06  6840   0.553E-03    0.533E-03
DAV:   4    -0.161979746672E+04   -0.32354E-05   -0.42074E-06  6392   0.419E-03    0.114E-03
DAV:   5    -0.161979746750E+04   -0.78192E-06   -0.17060E-06  6320   0.247E-03
  13 F= -.16197975E+04 E0= -.16198027E+04  d E =-.790938E-04
       N       E                     dE             d eps       ncg     rms          rms(c)
DAV:   1    -0.161979751702E+04   -0.50296E-04   -0.25835E-03 12208   0.656E-02    0.953E-03
DAV:   2    -0.161979750866E+04    0.83543E-05   -0.18290E-05  6808   0.706E-03    0.570E-03
DAV:   3    -0.161979750534E+04    0.33266E-05   -0.69354E-06  6424   0.503E-03    0.368E-03
DAV:   4    -0.161979750150E+04    0.38351E-05   -0.36773E-06  6296   0.403E-03    0.134E-03
DAV:   5    -0.161979750036E+04    0.11443E-05   -0.20191E-06  6296   0.255E-03
  14 F= -.16197975E+04 E0= -.16198027E+04  d E =-.328541E-04
       N       E                     dE             d eps       ncg     rms          rms(c)
DAV:   1    -0.161979754556E+04   -0.44059E-04   -0.43262E-03 12196   0.837E-02    0.926E-03
DAV:   2    -0.161979754988E+04   -0.43217E-05   -0.28870E-05  9352   0.817E-03    0.640E-03
DAV:   3    -0.161979755287E+04   -0.29885E-05   -0.93574E-06  6434   0.472E-03    0.209E-03
DAV:   4    -0.161979755448E+04   -0.16060E-05   -0.41400E-06  6272   0.381E-03    0.903E-04
DAV:   5    -0.161979755466E+04   -0.18418E-06   -0.21892E-06  6272   0.279E-03
  15 F= -.16197976E+04 E0= -.16198028E+04  d E =-.543041E-04
       N       E                     dE             d eps       ncg     rms          rms(c)
DAV:   1    -0.161979759779E+04   -0.43311E-04   -0.36098E-03 12196   0.764E-02    0.868E-03
DAV:   2    -0.161979759396E+04    0.38294E-05   -0.22957E-05  7312   0.777E-03    0.586E-03
DAV:   3    -0.161979759167E+04    0.22882E-05   -0.83994E-06  6432   0.489E-03    0.337E-03
DAV:   4    -0.161979758930E+04    0.23724E-05   -0.45547E-06  6272   0.412E-03    0.992E-04
DAV:   5    -0.161979758918E+04    0.12208E-06   -0.24787E-06  6272   0.285E-03
  16 F= -.16197976E+04 E0= -.16198028E+04  d E =-.345151E-04
       N       E                     dE             d eps       ncg     rms          rms(c)
DAV:   1    -0.161979761082E+04   -0.21522E-04   -0.15941E-03 12208   0.511E-02    0.672E-03
DAV:   2    -0.161979761444E+04   -0.36240E-05   -0.11690E-05  6520   0.543E-03    0.426E-03
DAV:   3    -0.161979761745E+04   -0.30089E-05   -0.49797E-06  6272   0.339E-03    0.168E-03
DAV:   4    -0.161979761901E+04   -0.15570E-05   -0.24496E-06  6272   0.263E-03    0.864E-04
DAV:   5    -0.161979761948E+04   -0.46755E-06   -0.13425E-06  6272   0.202E-03
  17 F= -.16197976E+04 E0= -.16198028E+04  d E =-.303017E-04
       N       E                     dE             d eps       ncg     rms          rms(c)
DAV:   1    -0.161979764946E+04   -0.30453E-04   -0.22694E-03 12196   0.605E-02    0.660E-03
DAV:   2    -0.161979764719E+04    0.22680E-05   -0.14161E-05  7816   0.607E-03    0.456E-03
DAV:   3    -0.161979764535E+04    0.18415E-05   -0.53661E-06  6418   0.365E-03    0.218E-03
DAV:   4    -0.161979764408E+04    0.12698E-05   -0.28365E-06  6272   0.305E-03    0.675E-04
DAV:   5    -0.161979764414E+04   -0.56511E-07   -0.15519E-06  6272   0.221E-03
  18 F= -.16197976E+04 E0= -.16198029E+04  d E =-.246625E-04
       N       E                     dE             d eps       ncg     rms          rms(c)
DAV:   1    -0.161979766810E+04   -0.24014E-04   -0.27657E-03 12184   0.668E-02    0.709E-03
DAV:   2    -0.161979767109E+04   -0.29970E-05   -0.17151E-05  7224   0.660E-03    0.497E-03
DAV:   3    -0.161979767344E+04   -0.23473E-05   -0.68128E-06  6266   0.382E-03    0.128E-03
DAV:   4    -0.161979767446E+04   -0.10167E-05   -0.31722E-06  6272   0.287E-03    0.693E-04
DAV:   5    -0.161979767453E+04   -0.76273E-07   -0.17395E-06  6272   0.225E-03
  19 F= -.16197977E+04 E0= -.16198029E+04  d E =-.303947E-04
       N       E                     dE             d eps       ncg     rms          rms(c)
DAV:   1    -0.161979769121E+04   -0.16754E-04   -0.69853E-04 12208   0.342E-02    0.531E-03
DAV:   2    -0.161979768690E+04    0.43163E-05   -0.61505E-06  6272   0.398E-03    0.310E-03
DAV:   3    -0.161979768453E+04    0.23618E-05   -0.26377E-06  6272   0.273E-03    0.163E-03
DAV:   4    -0.161979768307E+04    0.14655E-05   -0.13495E-06  6272   0.219E-03    0.760E-04
DAV:   5    -0.161979768243E+04    0.63813E-06   -0.77491E-07  6272   0.155E-03
  20 F= -.16197977E+04 E0= -.16198029E+04  d E =-.789601E-05
       N       E                     dE             d eps       ncg     rms          rms(c)
DAV:   1    -0.161979769782E+04   -0.14747E-04   -0.13724E-03 12184   0.471E-02    0.506E-03
DAV:   2    -0.161979769982E+04   -0.20049E-05   -0.83086E-06  6712   0.463E-03    0.354E-03
DAV:   3    -0.161979770151E+04   -0.16898E-05   -0.33850E-06  6364   0.272E-03    0.102E-03
DAV:   4    -0.161979770223E+04   -0.71842E-06   -0.16096E-06  6272   0.211E-03    0.502E-04
DAV:   5    -0.161979770225E+04   -0.18591E-07   -0.88575E-07  6266   0.162E-03
  21 F= -.16197977E+04 E0= -.16198029E+04  d E =-.198167E-04
       N       E                     dE             d eps       ncg     rms          rms(c)
DAV:   1    -0.161979772342E+04   -0.21196E-04   -0.24808E-03 12172   0.632E-02    0.649E-03
DAV:   2    -0.161979772207E+04    0.13577E-05   -0.14688E-05  7704   0.617E-03    0.462E-03
DAV:   3    -0.161979772032E+04    0.17514E-05   -0.55582E-06  6314   0.355E-03    0.160E-03
DAV:   4    -0.161979771971E+04    0.60661E-06   -0.27486E-06  6272   0.285E-03    0.628E-04
DAV:   5    -0.161979771989E+04   -0.17659E-06   -0.15006E-06  6266   0.216E-03
  22 F= -.16197977E+04 E0= -.16198030E+04  d E =-.176385E-04
       N       E                     dE             d eps       ncg     rms          rms(c)
DAV:   1    -0.161979772215E+04   -0.24387E-05   -0.22685E-04 12104   0.204E-02    0.454E-03
DAV:   2    -0.161979772520E+04   -0.30493E-05   -0.30993E-06  6272   0.278E-03    0.235E-03
DAV:   3    -0.161979772735E+04   -0.21478E-05   -0.14523E-06  6272   0.211E-03    0.126E-03
DAV:   4    -0.161979772863E+04   -0.12816E-05   -0.71153E-07  6272   0.164E-03    0.576E-04
DAV:   5    -0.161979772945E+04   -0.82522E-06   -0.40408E-07  6272   0.110E-03
  23 F= -.16197977E+04 E0= -.16198030E+04  d E =-.956603E-05
       N       E                     dE             d eps       ncg     rms          rms(c)
DAV:   1    -0.161979774317E+04   -0.14546E-04   -0.94811E-04 12184   0.392E-02    0.439E-03
DAV:   2    -0.161979774133E+04    0.18389E-05   -0.56965E-06  6272   0.386E-03    0.298E-03
DAV:   3    -0.161979773985E+04    0.14816E-05   -0.21636E-06  6260   0.226E-03    0.130E-03
DAV:   4    -0.161979773905E+04    0.80352E-06   -0.10882E-06  6272   0.185E-03    0.488E-04
DAV:   5    -0.161979773900E+04    0.46877E-07   -0.59266E-07  6272   0.136E-03
  24 F= -.16197977E+04 E0= -.16198030E+04  d E =-.955004E-05
       N       E                     dE             d eps       ncg     rms          rms(c)
DAV:   1    -0.161979775107E+04   -0.12019E-04   -0.17632E-03 12172   0.532E-02    0.529E-03
DAV:   2    -0.161979775239E+04   -0.13191E-05   -0.10137E-05  6824   0.513E-03    0.385E-03
DAV:   3    -0.161979775334E+04   -0.94983E-06   -0.41976E-06  6378   0.297E-03    0.681E-04
DAV:   4    -0.161979775369E+04   -0.34965E-06   -0.18448E-06  6272   0.215E-03    0.489E-04
DAV:   5    -0.161979775370E+04   -0.13747E-07   -0.10194E-06  6272   0.167E-03
  25 F= -.16197978E+04 E0= -.16198030E+04  d E =-.146983E-04
       N       E                     dE             d eps       ncg     rms          rms(c)
DAV:   1    -0.161979776218E+04   -0.84951E-05   -0.33596E-04 12140   0.243E-02    0.479E-03
DAV:   2    -0.161979775752E+04    0.46582E-05   -0.36950E-06  6254   0.309E-03    0.253E-03
DAV:   3    -0.161979775516E+04    0.23620E-05   -0.16334E-06  6254   0.226E-03    0.139E-03
DAV:   4    -0.161979775373E+04    0.14320E-05   -0.79625E-07  6254   0.179E-03    0.642E-04
DAV:   5    -0.161979775292E+04    0.81360E-06   -0.45152E-07  6254   0.117E-03
  26 F= -.16197978E+04 E0= -.16198030E+04  d E =0.784478E-06
       N       E                     dE             d eps       ncg     rms          rms(c)
DAV:   1    -0.161979775682E+04   -0.30882E-05   -0.32489E-04 12080   0.234E-02    0.365E-03
DAV:   2    -0.161979775908E+04   -0.22623E-05   -0.25365E-06  6254   0.256E-03    0.215E-03
DAV:   3    -0.161979776067E+04   -0.15902E-05   -0.10851E-06  6248   0.172E-03    0.109E-03
DAV:   4    -0.161979776165E+04   -0.97897E-06   -0.52869E-07  6254   0.138E-03    0.480E-04
DAV:   5    -0.161979776210E+04   -0.45011E-06   -0.29053E-07  6254   0.945E-04
  27 F= -.16197978E+04 E0= -.16198030E+04  d E =-.918340E-05
       N       E                     dE             d eps       ncg     rms          rms(c)
DAV:   1    -0.161979776938E+04   -0.77267E-05   -0.80345E-04 12172   0.359E-02    0.355E-03
DAV:   2    -0.161979776937E+04    0.82105E-08   -0.45917E-06  6278   0.346E-03    0.259E-03
DAV:   3    -0.161979776904E+04    0.32347E-06   -0.18916E-06  6248   0.199E-03    0.445E-04
DAV:   4    -0.161979776908E+04   -0.31263E-07   -0.83152E-07  6254   0.142E-03    0.324E-04
DAV:   5    -0.161979776913E+04   -0.53417E-07   -0.46112E-07  6254   0.112E-03
  28 F= -.16197978E+04 E0= -.16198030E+04  d E =-.702958E-05
       N       E                     dE             d eps       ncg     rms          rms(c)
DAV:   1    -0.161979778132E+04   -0.12247E-04   -0.89907E-03 12112   0.120E-01    0.120E-02
DAV:   2    -0.161979778829E+04   -0.69678E-05   -0.72029E-05 14376   0.113E-02    0.899E-03
DAV:   3    -0.161979778931E+04   -0.10209E-05   -0.94965E-06  6730   0.502E-03    0.328E-03
DAV:   4    -0.161979779083E+04   -0.15189E-05   -0.31214E-06  6392   0.395E-03    0.125E-03
DAV:   5    -0.161979779065E+04    0.17644E-06   -0.11351E-06  6300   0.248E-03
  29 F= -.16197978E+04 E0= -.16198030E+04  d E =-.215252E-04
       N       E                     dE             d eps       ncg     rms          rms(c)
DAV:   1    -0.161979778676E+04    0.40679E-05   -0.32973E-03 12124   0.733E-02    0.818E-03
DAV:   2    -0.161979778215E+04    0.46124E-05   -0.16222E-05  6472   0.676E-03    0.548E-03
DAV:   3    -0.161979777808E+04    0.40660E-05   -0.55665E-06  6266   0.367E-03    0.209E-03
DAV:   4    -0.161979777658E+04    0.15036E-05   -0.24173E-06  6272   0.295E-03    0.822E-04
DAV:   5    -0.161979777657E+04    0.83628E-08   -0.11634E-06  6272   0.204E-03
  30 F= -.16197978E+04 E0= -.16198030E+04  d E =0.140818E-04
       N       E                     dE             d eps       ncg     rms          rms(c)
DAV:   1    -0.161979778397E+04   -0.73927E-05   -0.15204E-03 12136   0.496E-02    0.461E-03
DAV:   2    -0.161979778419E+04   -0.21424E-06   -0.66020E-06  6254   0.423E-03    0.335E-03
DAV:   3    -0.161979778401E+04    0.17293E-06   -0.22494E-06  6236   0.214E-03    0.512E-04
DAV:   4    -0.161979778409E+04   -0.71820E-07   -0.75272E-07  6254   0.141E-03    0.407E-04
DAV:   5    -0.161979778411E+04   -0.21832E-07   -0.37237E-07  6254   0.106E-03
  31 F= -.16197978E+04 E0= -.16198030E+04  d E =-.753603E-05
       N       E                     dE             d eps       ncg     rms          rms(c)
DAV:   1    -0.161979779095E+04   -0.68614E-05   -0.37830E-03 12112   0.779E-02    0.745E-03
DAV:   2    -0.161979779243E+04   -0.14833E-05   -0.20539E-05  7328   0.729E-03    0.546E-03
DAV:   3    -0.161979779285E+04   -0.41496E-06   -0.81332E-06  6254   0.407E-03    0.754E-04
DAV:   4    -0.161979779320E+04   -0.35420E-06   -0.32560E-06  6272   0.268E-03    0.497E-04
DAV:   5    -0.161979779333E+04   -0.13374E-06   -0.17366E-06  6266   0.210E-03
  32 F= -.16197978E+04 E0= -.16198030E+04  d E =-.922571E-05
