       N       E                     dE             d eps       ncg     rms          rms(c)
DAV:   1     0.244472835799E+04    0.24447E+04   -0.30262E+05 12056   0.144E+03
DAV:   2    -0.119907949399E+04   -0.36438E+04   -0.34909E+04 13908   0.321E+02
DAV:   3    -0.166782835929E+04   -0.46875E+03   -0.43980E+03 18424   0.822E+01
DAV:   4    -0.169305798055E+04   -0.25230E+02   -0.24026E+02 16864   0.181E+01
DAV:   5    -0.169411961122E+04   -0.10616E+01   -0.10451E+01 18776   0.403E+00    0.440E+01
DAV:   6    -0.164444793090E+04    0.49672E+02   -0.18443E+02 18264   0.186E+01    0.243E+01
DAV:   7    -0.162941582703E+04    0.15032E+02   -0.10551E+02 18088   0.166E+01    0.172E+01
DAV:   8    -0.161934663115E+04    0.10069E+02   -0.61091E+01 17728   0.127E+01    0.869E+00
DAV:   9    -0.161499870373E+04    0.43479E+01   -0.24403E+01 17432   0.827E+00    0.248E+00
DAV:  10    -0.161509689022E+04   -0.98186E-01   -0.46946E+00 17360   0.308E+00    0.163E+00
DAV:  11    -0.161506445807E+04    0.32432E-01   -0.53355E-01 15344   0.112E+00    0.114E+00
DAV:  12    -0.161502945960E+04    0.34998E-01   -0.20236E-01 14384   0.692E-01    0.552E-01
DAV:  13    -0.161502121834E+04    0.82413E-02   -0.46142E-02 15248   0.378E-01    0.280E-01
DAV:  14    -0.161501878329E+04    0.24351E-02   -0.16703E-02 15680   0.220E-01    0.134E-01
DAV:  15    -0.161501831923E+04    0.46406E-03   -0.55708E-03 15112   0.111E-01    0.581E-02
DAV:  16    -0.161501838063E+04   -0.61404E-04   -0.13310E-03 16352   0.530E-02    0.348E-02
DAV:  17    -0.161501836860E+04    0.12033E-04   -0.28150E-04 16472   0.276E-02    0.186E-02
DAV:  18    -0.161501835588E+04    0.12717E-04   -0.90740E-05 14624   0.172E-02    0.101E-02
DAV:  19    -0.161501835177E+04    0.41098E-05   -0.28198E-05  8224   0.897E-03
   1 F= -.16150184E+04 E0= -.16150145E+04  d E =-.161502E+04
       N       E                     dE             d eps       ncg     rms          rms(c)
DAV:   1    -0.161665523063E+04   -0.16369E+01   -0.64397E+02 12040   0.368E+01    0.121E+01
DAV:   2    -0.161043471836E+04    0.62205E+01   -0.25747E+01 16720   0.741E+00    0.631E+00
DAV:   3    -0.160875167024E+04    0.16830E+01   -0.12430E+01 18048   0.535E+00    0.447E+00
DAV:   4    -0.160788662406E+04    0.86505E+00   -0.44205E+00 18488   0.363E+00    0.274E+00
DAV:   5    -0.160746762845E+04    0.41900E+00   -0.25634E+00 16616   0.253E+00    0.824E-01
DAV:   6    -0.160746441516E+04    0.32133E-02   -0.43905E-01 15912   0.108E+00    0.580E-01
DAV:   7    -0.160746100361E+04    0.34115E-02   -0.84742E-02 15200   0.445E-01    0.400E-01
DAV:   8    -0.160746139942E+04   -0.39581E-03   -0.30737E-02 16568   0.225E-01    0.197E-01
DAV:   9    -0.160746297936E+04   -0.15799E-02   -0.11375E-02 16024   0.152E-01    0.140E-01
DAV:  10    -0.160746226389E+04    0.71547E-03   -0.35815E-03 16080   0.106E-01    0.818E-02
DAV:  11    -0.160746198961E+04    0.27428E-03   -0.17796E-03 16536   0.558E-02    0.341E-02
DAV:  12    -0.160746203085E+04   -0.41242E-04   -0.51897E-04 16960   0.312E-02    0.253E-02
DAV:  13    -0.160746203365E+04   -0.28007E-05   -0.11353E-04 15000   0.181E-02    0.141E-02
DAV:  14    -0.160746203558E+04   -0.19296E-05   -0.39077E-05  9488   0.922E-03
   2 F= -.16074620E+04 E0= -.16074611E+04  d E =0.755632E+01
       N       E                     dE             d eps       ncg     rms          rms(c)
DAV:   1    -0.162207125835E+04   -0.14609E+02   -0.24886E+02 12040   0.257E+01    0.875E+00
DAV:   2    -0.161850005006E+04    0.35712E+01   -0.71150E+00 14604   0.428E+00    0.419E+00
DAV:   3    -0.161782261037E+04    0.67744E+00   -0.34911E+00 15504   0.295E+00    0.272E+00
DAV:   4    -0.161743129514E+04    0.39132E+00   -0.16428E+00 16640   0.248E+00    0.130E+00
DAV:   5    -0.161733236112E+04    0.98934E-01   -0.73697E-01 15984   0.148E+00    0.385E-01
DAV:   6    -0.161733666771E+04   -0.43066E-02   -0.12326E-01 15000   0.582E-01    0.295E-01
DAV:   7    -0.161733717413E+04   -0.50641E-03   -0.20107E-02 15488   0.220E-01    0.202E-01
DAV:   8    -0.161733884889E+04   -0.16748E-02   -0.94710E-03 15920   0.123E-01    0.902E-02
DAV:   9    -0.161733951988E+04   -0.67099E-03   -0.21700E-03 14656   0.721E-02    0.587E-02
DAV:  10    -0.161733955531E+04   -0.35429E-04   -0.79702E-04 15392   0.460E-02    0.311E-02
DAV:  11    -0.161733967513E+04   -0.11982E-03   -0.48839E-04 16616   0.316E-02    0.241E-02
DAV:  12    -0.161733973628E+04   -0.61151E-04   -0.10211E-04 13560   0.147E-02    0.111E-02
DAV:  13    -0.161733973228E+04    0.40034E-05   -0.19336E-05  7688   0.719E-03
   3 F= -.16173397E+04 E0= -.16173420E+04  d E =-.987770E+01
       N       E                     dE             d eps       ncg     rms          rms(c)
DAV:   1    -0.161739542040E+04   -0.55684E-01   -0.95839E+00 12040   0.393E+00    0.498E-01
DAV:   2    -0.161740481058E+04   -0.93902E-02   -0.18034E-01 17272   0.689E-01    0.392E-01
DAV:   3    -0.161739695818E+04    0.78524E-02   -0.48986E-02 18168   0.380E-01    0.252E-01
DAV:   4    -0.161739566329E+04    0.12949E-02   -0.82844E-03 18656   0.148E-01    0.166E-01
DAV:   5    -0.161739494831E+04    0.71498E-03   -0.49414E-03 16336   0.116E-01    0.537E-02
DAV:   6    -0.161739486198E+04    0.86330E-04   -0.12901E-03 16256   0.632E-02    0.343E-02
DAV:   7    -0.161739482647E+04    0.35512E-04   -0.27871E-04 16144   0.266E-02    0.200E-02
DAV:   8    -0.161739482181E+04    0.46578E-05   -0.69755E-05 12992   0.120E-02
   4 F= -.16173948E+04 E0= -.16173979E+04  d E =-.550895E-01
       N       E                     dE             d eps       ncg     rms          rms(c)
DAV:   1    -0.161740434212E+04   -0.95156E-02   -0.16010E+00 12046   0.161E+00    0.188E-01
DAV:   2    -0.161740616386E+04   -0.18217E-02   -0.24739E-02 16936   0.283E-01    0.167E-01
DAV:   3    -0.161740439640E+04    0.17675E-02   -0.79409E-03 17690   0.159E-01    0.989E-02
DAV:   4    -0.161740422183E+04    0.17457E-03   -0.13481E-03 17280   0.572E-02    0.568E-02
DAV:   5    -0.161740416495E+04    0.56883E-04   -0.73992E-04 15808   0.463E-02    0.199E-02
DAV:   6    -0.161740415145E+04    0.13506E-04   -0.19362E-04 15576   0.244E-02    0.118E-02
DAV:   7    -0.161740414351E+04    0.79378E-05   -0.28048E-05  8560   0.936E-03
   5 F= -.16174041E+04 E0= -.16174074E+04  d E =-.932169E-02
       N       E                     dE             d eps       ncg     rms          rms(c)
DAV:   1    -0.161740658083E+04   -0.24294E-02   -0.19596E-01 12184   0.643E-01    0.182E-01
DAV:   2    -0.161740521174E+04    0.13691E-02   -0.50553E-03 16656   0.125E-01    0.103E-01
DAV:   3    -0.161740472006E+04    0.49168E-03   -0.28968E-03 17980   0.934E-02    0.731E-02
DAV:   4    -0.161740435959E+04    0.36047E-03   -0.98245E-04 16664   0.546E-02    0.317E-02
DAV:   5    -0.161740426193E+04    0.97660E-04   -0.41215E-04 15512   0.339E-02    0.111E-02
DAV:   6    -0.161740425410E+04    0.78354E-05   -0.75755E-05 13960   0.160E-02
   6 F= -.16174043E+04 E0= -.16174078E+04  d E =-.110588E-03
       N       E                     dE             d eps       ncg     rms          rms(c)
DAV:   1    -0.161740782281E+04   -0.35609E-02   -0.14527E-01 12190   0.527E-01    0.122E-01
DAV:   2    -0.161740739482E+04    0.42799E-03   -0.21438E-03 15848   0.757E-02    0.661E-02
DAV:   3    -0.161740731346E+04    0.81363E-04   -0.98759E-04 17474   0.540E-02    0.496E-02
DAV:   4    -0.161740723170E+04    0.81756E-04   -0.44443E-04 16640   0.368E-02    0.197E-02
DAV:   5    -0.161740724740E+04   -0.15703E-04   -0.16696E-04 15104   0.200E-02    0.808E-03
DAV:   6    -0.161740724764E+04   -0.23360E-06   -0.21181E-05  8192   0.878E-03
   7 F= -.16174072E+04 E0= -.16174107E+04  d E =-.299354E-02
       N       E                     dE             d eps       ncg     rms          rms(c)
DAV:   1    -0.161740809064E+04   -0.84324E-03   -0.93769E-02 12154   0.389E-01    0.474E-02
DAV:   2    -0.161740817281E+04   -0.82170E-04   -0.13309E-03 17272   0.668E-02    0.422E-02
DAV:   3    -0.161740805793E+04    0.11489E-03   -0.48064E-04 17718   0.391E-02    0.250E-02
DAV:   4    -0.161740803623E+04    0.21695E-04   -0.73727E-05 13680   0.142E-02    0.126E-02
DAV:   5    -0.161740802640E+04    0.98304E-05   -0.28849E-05  9040   0.115E-02
   8 F= -.16174080E+04 E0= -.16174115E+04  d E =-.778761E-03
       N       E                     dE             d eps       ncg     rms          rms(c)
DAV:   1    -0.161740842747E+04   -0.39124E-03   -0.60111E-02 12172   0.315E-01    0.407E-02
DAV:   2    -0.161740846243E+04   -0.34965E-04   -0.64405E-04 16944   0.402E-02    0.289E-02
DAV:   3    -0.161740844135E+04    0.21086E-04   -0.17779E-04 17242   0.239E-02    0.212E-02
DAV:   4    -0.161740844423E+04   -0.28836E-05   -0.53364E-05 12296   0.117E-02    0.691E-03
DAV:   5    -0.161740844958E+04   -0.53519E-05   -0.13687E-05  7232   0.774E-03
   9 F= -.16174084E+04 E0= -.16174120E+04  d E =-.423185E-03
       N       E                     dE             d eps       ncg     rms          rms(c)
DAV:   1    -0.161740866472E+04   -0.22049E-03   -0.45256E-03 12208   0.101E-01    0.313E-02
DAV:   2    -0.161740859578E+04    0.68942E-04   -0.11014E-04 14880   0.169E-02    0.157E-02
DAV:   3    -0.161740857606E+04    0.19718E-04   -0.48838E-05 11024   0.127E-02    0.107E-02
DAV:   4    -0.161740855802E+04    0.18039E-04   -0.16035E-05  8600   0.935E-03    0.480E-03
DAV:   5    -0.161740854879E+04    0.92346E-05   -0.89397E-06  6464   0.542E-03
  10 F= -.16174085E+04 E0= -.16174121E+04  d E =-.992028E-04
       N       E                     dE             d eps       ncg     rms          rms(c)
DAV:   1    -0.161740878585E+04   -0.22783E-03   -0.25729E-02 12178   0.204E-01    0.216E-02
DAV:   2    -0.161740880571E+04   -0.19860E-04   -0.23974E-04 17656   0.233E-02    0.169E-02
DAV:   3    -0.161740879857E+04    0.71436E-05   -0.35803E-05  9964   0.125E-02    0.128E-02
DAV:   4    -0.161740880104E+04   -0.24706E-05   -0.23048E-05  6976   0.757E-03    0.260E-03
DAV:   5    -0.161740880168E+04   -0.64598E-06   -0.55450E-06  6584   0.543E-03
  11 F= -.16174088E+04 E0= -.16174124E+04  d E =-.252897E-03
       N       E                     dE             d eps       ncg     rms          rms(c)
DAV:   1    -0.161740902124E+04   -0.22020E-03   -0.31926E-02 12172   0.227E-01    0.240E-02
DAV:   2    -0.161740902929E+04   -0.80598E-05   -0.29712E-04 17688   0.254E-02    0.187E-02
DAV:   3    -0.161740901794E+04    0.11352E-04   -0.51525E-05 11496   0.140E-02    0.140E-02
DAV:   4    -0.161740900639E+04    0.11550E-04   -0.20959E-05  7360   0.776E-03    0.423E-03
DAV:   5    -0.161740900392E+04    0.24760E-05   -0.66608E-06  6656   0.585E-03
  12 F= -.16174090E+04 E0= -.16174126E+04  d E =-.202232E-03
       N       E                     dE             d eps       ncg     rms          rms(c)
DAV:   1    -0.161740902652E+04   -0.20124E-04   -0.10088E-03 12208   0.483E-02    0.151E-02
DAV:   2    -0.161740902964E+04   -0.31258E-05   -0.17455E-05  6440   0.716E-03    0.737E-03
DAV:   3    -0.161740903533E+04   -0.56922E-05   -0.85202E-06  6416   0.539E-03    0.398E-03
DAV:   4    -0.161740903932E+04   -0.39879E-05   -0.40237E-06  6296   0.423E-03    0.166E-03
DAV:   5    -0.161740904186E+04   -0.25370E-05   -0.18117E-06  6296   0.266E-03
  13 F= -.16174090E+04 E0= -.16174126E+04  d E =-.379431E-04
       N       E                     dE             d eps       ncg     rms          rms(c)
DAV:   1    -0.161740917440E+04   -0.13508E-03   -0.12473E-02 12190   0.142E-01    0.158E-02
DAV:   2    -0.161740917151E+04    0.28930E-05   -0.10833E-04 15656   0.144E-02    0.114E-02
DAV:   3    -0.161740916720E+04    0.43050E-05   -0.13891E-05  7924   0.727E-03    0.856E-03
DAV:   4    -0.161740916050E+04    0.67041E-05   -0.82526E-06  6488   0.546E-03    0.282E-03
DAV:   5    -0.161740915857E+04    0.19291E-05   -0.32112E-06  6400   0.386E-03
  14 F= -.16174092E+04 E0= -.16174127E+04  d E =-.116712E-03
       N       E                     dE             d eps       ncg     rms          rms(c)
DAV:   1    -0.161740925932E+04   -0.98823E-04   -0.13167E-02 12172   0.146E-01    0.143E-02
DAV:   2    -0.161740926908E+04   -0.97522E-05   -0.10995E-04 16040   0.139E-02    0.109E-02
DAV:   3    -0.161740926881E+04    0.26370E-06   -0.89042E-06  7346   0.585E-03    0.762E-03
DAV:   4    -0.161740927059E+04   -0.17747E-05   -0.79753E-06  6432   0.517E-03    0.154E-03
DAV:   5    -0.161740927036E+04    0.22274E-06   -0.17176E-06  6344   0.301E-03
  15 F= -.16174093E+04 E0= -.16174128E+04  d E =-.111793E-03
       N       E                     dE             d eps       ncg     rms          rms(c)
DAV:   1    -0.161740932949E+04   -0.58902E-04   -0.39164E-03 12196   0.812E-02    0.121E-02
DAV:   2    -0.161740931726E+04    0.12226E-04   -0.28478E-05  8616   0.889E-03    0.715E-03
DAV:   3    -0.161740931265E+04    0.46092E-05   -0.10391E-05  6938   0.616E-03    0.467E-03
DAV:   4    -0.161740930769E+04    0.49683E-05   -0.51846E-06  6272   0.478E-03    0.194E-03
DAV:   5    -0.161740930569E+04    0.19969E-05   -0.29169E-06  6272   0.312E-03
  16 F= -.16174093E+04 E0= -.16174129E+04  d E =-.353246E-04
       N       E                     dE             d eps       ncg     rms          rms(c)
DAV:   1    -0.161740934887E+04   -0.41181E-04   -0.29547E-03 12196   0.704E-02    0.105E-02
DAV:   2    -0.161740935363E+04   -0.47639E-05   -0.21406E-05  7080   0.750E-03    0.633E-03
DAV:   3    -0.161740935740E+04   -0.37689E-05   -0.87700E-06  6368   0.471E-03    0.323E-03
DAV:   4    -0.161740936026E+04   -0.28607E-05   -0.44097E-06  6272   0.372E-03    0.155E-03
DAV:   5    -0.161740936150E+04   -0.12417E-05   -0.23326E-06  6272   0.280E-03
  17 F= -.16174094E+04 E0= -.16174129E+04  d E =-.558127E-04
       N       E                     dE             d eps       ncg     rms          rms(c)
DAV:   1    -0.161740941421E+04   -0.53945E-04   -0.49315E-03 12184   0.891E-02    0.932E-03
DAV:   2    -0.161740941308E+04    0.11237E-05   -0.34963E-05  9736   0.879E-03    0.672E-03
DAV:   3    -0.161740941137E+04    0.17142E-05   -0.92500E-06  6532   0.495E-03    0.379E-03
DAV:   4    -0.161740940954E+04    0.18307E-05   -0.48292E-06  6272   0.408E-03    0.970E-04
DAV:   5    -0.161740940958E+04   -0.40214E-07   -0.23488E-06  6272   0.287E-03
  18 F= -.16174094E+04 E0= -.16174130E+04  d E =-.480752E-04
       N       E                     dE             d eps       ncg     rms          rms(c)
DAV:   1    -0.161740944902E+04   -0.39479E-04   -0.48140E-03 12172   0.883E-02    0.964E-03
DAV:   2    -0.161740945377E+04   -0.47588E-05   -0.31020E-05  8832   0.870E-03    0.667E-03
DAV:   3    -0.161740945669E+04   -0.29178E-05   -0.10587E-05  6426   0.490E-03    0.257E-03
DAV:   4    -0.161740945886E+04   -0.21691E-05   -0.50499E-06  6272   0.378E-03    0.113E-03
DAV:   5    -0.161740945911E+04   -0.24810E-06   -0.26234E-06  6272   0.294E-03
  19 F= -.16174095E+04 E0= -.16174130E+04  d E =-.495324E-04
       N       E                     dE             d eps       ncg     rms          rms(c)
DAV:   1    -0.161740948131E+04   -0.22445E-04   -0.65637E-04 12208   0.339E-02    0.658E-03
DAV:   2    -0.161740947485E+04    0.64524E-05   -0.72429E-06  6272   0.441E-03    0.358E-03
DAV:   3    -0.161740947211E+04    0.27433E-05   -0.31919E-06  6272   0.328E-03    0.219E-03
DAV:   4    -0.161740946989E+04    0.22169E-05   -0.16139E-06  6272   0.251E-03    0.998E-04
DAV:   5    -0.161740946874E+04    0.11579E-05   -0.93123E-07  6272   0.175E-03
  20 F= -.16174095E+04 E0= -.16174131E+04  d E =-.962664E-05
       N       E                     dE             d eps       ncg     rms          rms(c)
DAV:   1    -0.161740949782E+04   -0.27925E-04   -0.29099E-03 12178   0.685E-02    0.698E-03
DAV:   2    -0.161740949996E+04   -0.21366E-05   -0.16516E-05  7248   0.657E-03    0.503E-03
DAV:   3    -0.161740950137E+04   -0.14128E-05   -0.65674E-06  6396   0.381E-03    0.137E-03
DAV:   4    -0.161740950216E+04   -0.78931E-06   -0.30900E-06  6272   0.302E-03    0.735E-04
DAV:   5    -0.161740950216E+04   -0.18463E-09   -0.16773E-06  6260   0.226E-03
  21 F= -.16174095E+04 E0= -.16174131E+04  d E =-.334217E-04
       N       E                     dE             d eps       ncg     rms          rms(c)
DAV:   1    -0.161740954398E+04   -0.41823E-04   -0.69120E-03 12160   0.106E-01    0.109E-02
DAV:   2    -0.161740954334E+04    0.64189E-06   -0.58908E-05 12536   0.103E-02    0.809E-03
DAV:   3    -0.161740954061E+04    0.27301E-05   -0.86602E-06  6610   0.508E-03    0.471E-03
DAV:   4    -0.161740953780E+04    0.28104E-05   -0.38987E-06  6272   0.403E-03    0.132E-03
DAV:   5    -0.161740953745E+04    0.34353E-06   -0.15544E-06  6272   0.276E-03
  22 F= -.16174095E+04 E0= -.16174131E+04  d E =-.352968E-04
       N       E                     dE             d eps       ncg     rms          rms(c)
DAV:   1    -0.161740952778E+04    0.10014E-04   -0.47047E-04 12196   0.292E-02    0.599E-03
DAV:   2    -0.161740953123E+04   -0.34497E-05   -0.37534E-06  6272   0.343E-03    0.320E-03
DAV:   3    -0.161740953349E+04   -0.22524E-05   -0.15278E-06  6266   0.236E-03    0.190E-03
DAV:   4    -0.161740953520E+04   -0.17157E-05   -0.70483E-07  6272   0.182E-03    0.822E-04
DAV:   5    -0.161740953631E+04   -0.11100E-05   -0.33490E-07  6272   0.112E-03
  23 F= -.16174095E+04 E0= -.16174131E+04  d E =0.114299E-05
       N       E                     dE             d eps       ncg     rms          rms(c)
DAV:   1    -0.161740956295E+04   -0.27751E-04   -0.32615E-03 12172   0.725E-02    0.689E-03
DAV:   2    -0.161740956293E+04    0.20165E-07   -0.16276E-05  6344   0.659E-03    0.504E-03
DAV:   3    -0.161740956201E+04    0.92238E-06   -0.56469E-06  6260   0.351E-03    0.155E-03
DAV:   4    -0.161740956190E+04    0.10787E-06   -0.26193E-06  6272   0.279E-03    0.776E-04
DAV:   5    -0.161740956203E+04   -0.12649E-06   -0.13381E-06  6272   0.204E-03
  24 F= -.16174096E+04 E0= -.16174132E+04  d E =-.257169E-04
       N       E                     dE             d eps       ncg     rms          rms(c)
DAV:   1    -0.161740960938E+04   -0.47478E-04   -0.27770E-02 12064   0.211E-01    0.203E-02
DAV:   2    -0.161740962596E+04   -0.16581E-04   -0.23340E-04 17528   0.197E-02    0.156E-02
DAV:   3    -0.161740962159E+04    0.43717E-05   -0.21405E-05  7656   0.718E-03    0.325E-03
DAV:   4    -0.161740962237E+04   -0.77649E-06   -0.48625E-06  6776   0.515E-03    0.189E-03
DAV:   5    -0.161740962209E+04    0.27774E-06   -0.14063E-06  6386   0.284E-03
  25 F= -.16174096E+04 E0= -.16174132E+04  d E =-.600591E-04
       N       E                     dE             d eps       ncg     rms          rms(c)
DAV:   1    -0.161740959808E+04    0.24280E-04   -0.10382E-02 12064   0.130E-01    0.142E-02
DAV:   2    -0.161740959250E+04    0.55895E-05   -0.73136E-05 13832   0.120E-02    0.100E-02
DAV:   3    -0.161740958534E+04    0.71558E-05   -0.10696E-05  6262   0.533E-03    0.480E-03
DAV:   4    -0.161740958125E+04    0.40863E-05   -0.44196E-06  6272   0.452E-03    0.159E-03
DAV:   5    -0.161740958079E+04    0.45890E-06   -0.17403E-06  6272   0.307E-03
  26 F= -.16174096E+04 E0= -.16174132E+04  d E =0.412929E-04
       N       E                     dE             d eps       ncg     rms          rms(c)
DAV:   1    -0.161740960971E+04   -0.28455E-04   -0.81261E-03 12076   0.115E-01    0.112E-02
DAV:   2    -0.161740961406E+04   -0.43493E-05   -0.51046E-05 11824   0.104E-02    0.841E-03
DAV:   3    -0.161740961476E+04   -0.69880E-06   -0.10871E-05  6230   0.518E-03    0.201E-03
DAV:   4    -0.161740961573E+04   -0.97335E-06   -0.28755E-06  6272   0.361E-03    0.134E-03
DAV:   5    -0.161740961549E+04    0.23435E-06   -0.12128E-06  6272   0.236E-03
  27 F= -.16174096E+04 E0= -.16174132E+04  d E =-.347005E-04
       N       E                     dE             d eps       ncg     rms          rms(c)
DAV:   1    -0.161740963129E+04   -0.15563E-04   -0.49661E-03 12124   0.894E-02    0.861E-03
DAV:   2    -0.161740963200E+04   -0.70701E-06   -0.30628E-05  9288   0.833E-03    0.638E-03
DAV:   3    -0.161740963092E+04    0.10789E-05   -0.94514E-06  6348   0.461E-03    0.225E-03
DAV:   4    -0.161740963071E+04    0.21339E-06   -0.44543E-06  6272   0.370E-03    0.965E-04
DAV:   5    -0.161740963093E+04   -0.22468E-06   -0.22561E-06  6272   0.266E-03
  28 F= -.16174096E+04 E0= -.16174133E+04  d E =-.154365E-04
       N       E                     dE             d eps       ncg     rms          rms(c)
DAV:   1    -0.161740962294E+04    0.77653E-05   -0.35947E-04 12172   0.266E-02    0.651E-03
DAV:   2    -0.161740962665E+04   -0.37106E-05   -0.37426E-06  6254   0.341E-03    0.332E-03
DAV:   3    -0.161740962909E+04   -0.24345E-05   -0.16908E-06  6242   0.255E-03    0.201E-03
DAV:   4    -0.161740963103E+04   -0.19466E-05   -0.75133E-07  6254   0.196E-03    0.853E-04
DAV:   5    -0.161740963235E+04   -0.13158E-05   -0.37677E-07  6254   0.116E-03
  29 F= -.16174096E+04 E0= -.16174132E+04  d E =-.141751E-05
       N       E                     dE             d eps       ncg     rms          rms(c)
DAV:   1    -0.161740964572E+04   -0.14687E-04   -0.94956E-04 12172   0.398E-02    0.540E-03
DAV:   2    -0.161740964165E+04    0.40672E-05   -0.58606E-06  6254   0.403E-03    0.327E-03
DAV:   3    -0.161740963967E+04    0.19864E-05   -0.20936E-06  6242   0.245E-03    0.194E-03
DAV:   4    -0.161740963804E+04    0.16290E-05   -0.10230E-06  6254   0.195E-03    0.873E-04
DAV:   5    -0.161740963729E+04    0.75001E-06   -0.54623E-07  6254   0.136E-03
  30 F= -.16174096E+04 E0= -.16174133E+04  d E =-.493884E-05
       N       E                     dE             d eps       ncg     rms          rms(c)
DAV:   1    -0.161740964114E+04   -0.31070E-05   -0.50615E-04 12164   0.285E-02    0.288E-03
DAV:   2    -0.161740964132E+04   -0.17263E-06   -0.31361E-06  6254   0.285E-03    0.212E-03
DAV:   3    -0.161740964136E+04   -0.39943E-07   -0.12429E-06  6248   0.175E-03    0.833E-04
DAV:   4    -0.161740964142E+04   -0.58135E-07   -0.67614E-07  6254   0.146E-03    0.368E-04
DAV:   5    -0.161740964144E+04   -0.21961E-07   -0.36088E-07  6254   0.103E-03
  31 F= -.16174096E+04 E0= -.16174133E+04  d E =-.414973E-05
       N       E                     dE             d eps       ncg     rms          rms(c)
DAV:   1    -0.161740965369E+04   -0.12278E-04   -0.11375E-02 12052   0.135E-01    0.133E-02
DAV:   2    -0.161740965618E+04   -0.24877E-05   -0.91642E-05 15056   0.127E-02    0.101E-02
DAV:   3    -0.161740965232E+04    0.38653E-05   -0.10011E-05  6846   0.525E-03    0.482E-03
DAV:   4    -0.161740965024E+04    0.20798E-05   -0.47199E-06  6416   0.455E-03    0.162E-03
DAV:   5    -0.161740965018E+04    0.60535E-07   -0.14957E-06  6298   0.297E-03
  32 F= -.16174097E+04 E0= -.16174133E+04  d E =-.873843E-05
       N       E                     dE             d eps       ncg     rms          rms(c)
DAV:   1    -0.161740965065E+04   -0.41085E-06   -0.64718E-04 12172   0.325E-02    0.377E-03
DAV:   2    -0.161740965279E+04   -0.21392E-05   -0.44280E-06  6272   0.327E-03    0.250E-03
DAV:   3    -0.161740965413E+04   -0.13409E-05   -0.17172E-06  6266   0.200E-03    0.130E-03
DAV:   4    -0.161740965517E+04   -0.10459E-05   -0.92915E-07  6254   0.165E-03    0.524E-04
DAV:   5    -0.161740965545E+04   -0.27822E-06   -0.50399E-07  6254   0.122E-03
  33 F= -.16174097E+04 E0= -.16174133E+04  d E =-.527563E-05
