       N       E                     dE             d eps       ncg     rms          rms(c)
DAV:   1     0.244577889386E+04    0.24458E+04   -0.30262E+05 12056   0.144E+03
DAV:   2    -0.119831883624E+04   -0.36441E+04   -0.34911E+04 13908   0.321E+02
DAV:   3    -0.166714885607E+04   -0.46883E+03   -0.43995E+03 18472   0.822E+01
DAV:   4    -0.169227219537E+04   -0.25123E+02   -0.23939E+02 16888   0.180E+01
DAV:   5    -0.169331221963E+04   -0.10400E+01   -0.10239E+01 18776   0.400E+00    0.438E+01
DAV:   6    -0.164261375515E+04    0.50698E+02   -0.15002E+02 18184   0.162E+01    0.235E+01
DAV:   7    -0.162898839219E+04    0.13625E+02   -0.90836E+01 17312   0.148E+01    0.160E+01
DAV:   8    -0.161884311062E+04    0.10145E+02   -0.50206E+01 17120   0.123E+01    0.732E+00
DAV:   9    -0.161594597881E+04    0.28971E+01   -0.19480E+01 17352   0.743E+00    0.224E+00
DAV:  10    -0.161600853154E+04   -0.62553E-01   -0.34732E+00 16696   0.265E+00    0.151E+00
DAV:  11    -0.161597574052E+04    0.32791E-01   -0.40376E-01 15920   0.914E-01    0.920E-01
DAV:  12    -0.161595630280E+04    0.19438E-01   -0.16517E-01 14888   0.669E-01    0.530E-01
DAV:  13    -0.161594610536E+04    0.10197E-01   -0.37595E-02 15352   0.363E-01    0.269E-01
DAV:  14    -0.161594396339E+04    0.21420E-02   -0.14254E-02 14944   0.165E-01    0.929E-02
DAV:  15    -0.161594391555E+04    0.47843E-04   -0.32241E-03 16272   0.923E-02    0.513E-02
DAV:  16    -0.161594388879E+04    0.26756E-04   -0.85613E-04 15256   0.504E-02    0.284E-02
DAV:  17    -0.161594388210E+04    0.66935E-05   -0.21540E-04 15488   0.239E-02    0.140E-02
DAV:  18    -0.161594387475E+04    0.73494E-05   -0.56180E-05 11568   0.139E-02
   1 F= -.16159439E+04 E0= -.16159426E+04  d E =-.161594E+04
       N       E                     dE             d eps       ncg     rms          rms(c)
DAV:   1    -0.161729977468E+04   -0.13559E+01   -0.61662E+02 12040   0.362E+01    0.119E+01
DAV:   2    -0.161091520715E+04    0.63846E+01   -0.22763E+01 16440   0.676E+00    0.589E+00
DAV:   3    -0.160946178217E+04    0.14534E+01   -0.98624E+00 17104   0.463E+00    0.405E+00
DAV:   4    -0.160875750964E+04    0.70427E+00   -0.36531E+00 17896   0.342E+00    0.245E+00
DAV:   5    -0.160840485194E+04    0.35266E+00   -0.20778E+00 16784   0.238E+00    0.751E-01
DAV:   6    -0.160840275532E+04    0.20966E-02   -0.38885E-01 15576   0.985E-01    0.521E-01
DAV:   7    -0.160840148950E+04    0.12658E-02   -0.72171E-02 16032   0.409E-01    0.370E-01
DAV:   8    -0.160840191304E+04   -0.42354E-03   -0.24629E-02 15720   0.205E-01    0.181E-01
DAV:   9    -0.160840344923E+04   -0.15362E-02   -0.97696E-03 15880   0.131E-01    0.121E-01
DAV:  10    -0.160840290171E+04    0.54752E-03   -0.23903E-03 15896   0.852E-02    0.722E-02
DAV:  11    -0.160840269595E+04    0.20576E-03   -0.16325E-03 16920   0.545E-02    0.316E-02
DAV:  12    -0.160840274998E+04   -0.54035E-04   -0.45067E-04 16912   0.290E-02    0.270E-02
DAV:  13    -0.160840274674E+04    0.32450E-05   -0.96267E-05 14552   0.165E-02
   2 F= -.16084027E+04 E0= -.16084033E+04  d E =0.754113E+01
       N       E                     dE             d eps       ncg     rms          rms(c)
DAV:   1    -0.162273002162E+04   -0.14327E+02   -0.24343E+02 12040   0.254E+01    0.867E+00
DAV:   2    -0.161915668907E+04    0.35733E+01   -0.68424E+00 14064   0.408E+00    0.407E+00
DAV:   3    -0.161842253340E+04    0.73416E+00   -0.28477E+00 14944   0.258E+00    0.234E+00
DAV:   4    -0.161814461633E+04    0.27792E+00   -0.12448E+00 16080   0.217E+00    0.112E+00
DAV:   5    -0.161806664308E+04    0.77973E-01   -0.55540E-01 15984   0.135E+00    0.344E-01
DAV:   6    -0.161807035004E+04   -0.37070E-02   -0.10308E-01 14976   0.515E-01    0.256E-01
DAV:   7    -0.161807147363E+04   -0.11236E-02   -0.15665E-02 15832   0.189E-01    0.174E-01
DAV:   8    -0.161807291016E+04   -0.14365E-02   -0.65622E-03 15528   0.111E-01    0.830E-02
DAV:   9    -0.161807356103E+04   -0.65087E-03   -0.18235E-03 13848   0.634E-02    0.493E-02
DAV:  10    -0.161807364791E+04   -0.86880E-04   -0.70637E-04 16024   0.394E-02    0.257E-02
DAV:  11    -0.161807374534E+04   -0.97430E-04   -0.27858E-04 15864   0.257E-02    0.216E-02
DAV:  12    -0.161807377698E+04   -0.31645E-04   -0.72183E-05 13232   0.129E-02    0.113E-02
DAV:  13    -0.161807376691E+04    0.10079E-04   -0.18694E-05  7336   0.643E-03    0.387E-03
DAV:  14    -0.161807376199E+04    0.49205E-05   -0.91721E-06  7000   0.474E-03
   3 F= -.16180738E+04 E0= -.16180790E+04  d E =-.967102E+01
       N       E                     dE             d eps       ncg     rms          rms(c)
DAV:   1    -0.161811741582E+04   -0.43649E-01   -0.87354E+00 12040   0.375E+00    0.472E-01
DAV:   2    -0.161812399950E+04   -0.65837E-02   -0.15730E-01 17104   0.603E-01    0.328E-01
DAV:   3    -0.161812052292E+04    0.34766E-02   -0.32303E-02 18280   0.300E-01    0.237E-01
DAV:   4    -0.161811934267E+04    0.11802E-02   -0.71024E-03 18752   0.140E-01    0.155E-01
DAV:   5    -0.161811869330E+04    0.64937E-03   -0.43181E-03 15832   0.100E-01    0.444E-02
DAV:   6    -0.161811864958E+04    0.43718E-04   -0.81578E-04 16712   0.501E-02    0.296E-02
DAV:   7    -0.161811862553E+04    0.24054E-04   -0.18584E-04 15848   0.228E-02    0.181E-02
DAV:   8    -0.161811862067E+04    0.48564E-05   -0.58661E-05 11760   0.105E-02
   4 F= -.16181186E+04 E0= -.16181246E+04  d E =-.448587E-01
       N       E                     dE             d eps       ncg     rms          rms(c)
DAV:   1    -0.161812474989E+04   -0.61244E-02   -0.96268E-01 12130   0.125E+00    0.145E-01
DAV:   2    -0.161812565048E+04   -0.90059E-03   -0.14674E-02 16848   0.205E-01    0.119E-01
DAV:   3    -0.161812488888E+04    0.76160E-03   -0.41739E-03 17846   0.114E-01    0.770E-02
DAV:   4    -0.161812478047E+04    0.10841E-03   -0.76192E-04 17560   0.436E-02    0.465E-02
DAV:   5    -0.161812474699E+04    0.33476E-04   -0.45737E-04 15120   0.339E-02    0.147E-02
DAV:   6    -0.161812474012E+04    0.68753E-05   -0.98316E-05 14704   0.180E-02
   5 F= -.16181247E+04 E0= -.16181309E+04  d E =-.611944E-02
       N       E                     dE             d eps       ncg     rms          rms(c)
DAV:   1    -0.161812638198E+04   -0.16350E-02   -0.18204E-01 12178   0.587E-01    0.138E-01
DAV:   2    -0.161812566077E+04    0.72122E-03   -0.35613E-03 16392   0.104E-01    0.796E-02
DAV:   3    -0.161812537089E+04    0.28988E-03   -0.16813E-03 17368   0.721E-02    0.566E-02
DAV:   4    -0.161812515270E+04    0.21818E-03   -0.53964E-04 16376   0.415E-02    0.244E-02
DAV:   5    -0.161812509281E+04    0.59891E-04   -0.22834E-04 15368   0.250E-02    0.923E-03
DAV:   6    -0.161812508635E+04    0.64587E-05   -0.38679E-05 10336   0.121E-02
   6 F= -.16181251E+04 E0= -.16181315E+04  d E =-.346237E-03
       N       E                     dE             d eps       ncg     rms          rms(c)
DAV:   1    -0.161812714906E+04   -0.20563E-02   -0.63351E-02 12172   0.362E-01    0.974E-02
DAV:   2    -0.161812683644E+04    0.31263E-03   -0.10776E-03 15648   0.507E-02    0.490E-02
DAV:   3    -0.161812680363E+04    0.32804E-04   -0.47611E-04 16808   0.369E-02    0.336E-02
DAV:   4    -0.161812677292E+04    0.30711E-04   -0.23154E-04 16664   0.288E-02    0.144E-02
DAV:   5    -0.161812678691E+04   -0.13990E-04   -0.90646E-05 14024   0.151E-02    0.539E-03
DAV:   6    -0.161812678784E+04   -0.93396E-06   -0.11425E-05  6792   0.614E-03
   7 F= -.16181268E+04 E0= -.16181331E+04  d E =-.170149E-02
       N       E                     dE             d eps       ncg     rms          rms(c)
DAV:   1    -0.161812740453E+04   -0.61762E-03   -0.69156E-02 12172   0.334E-01    0.397E-02
DAV:   2    -0.161812744596E+04   -0.41425E-04   -0.87097E-04 16928   0.525E-02    0.329E-02
DAV:   3    -0.161812738512E+04    0.60840E-04   -0.28671E-04 17648   0.305E-02    0.215E-02
DAV:   4    -0.161812736705E+04    0.18071E-04   -0.46966E-05 11160   0.118E-02    0.102E-02
DAV:   5    -0.161812735962E+04    0.74312E-05   -0.19009E-05  7952   0.898E-03
   8 F= -.16181274E+04 E0= -.16181337E+04  d E =-.571772E-03
       N       E                     dE             d eps       ncg     rms          rms(c)
DAV:   1    -0.161812768883E+04   -0.32178E-03   -0.51235E-02 12196   0.289E-01    0.338E-02
DAV:   2    -0.161812772603E+04   -0.37205E-04   -0.51774E-04 17408   0.353E-02    0.249E-02
DAV:   3    -0.161812771136E+04    0.14674E-04   -0.11237E-04 15610   0.200E-02    0.185E-02
DAV:   4    -0.161812771556E+04   -0.42025E-05   -0.37957E-05  9656   0.970E-03    0.462E-03
DAV:   5    -0.161812771845E+04   -0.28875E-05   -0.85199E-06  6896   0.638E-03
   9 F= -.16181277E+04 E0= -.16181341E+04  d E =-.358830E-03
       N       E                     dE             d eps       ncg     rms          rms(c)
DAV:   1    -0.161812784889E+04   -0.13334E-03   -0.27085E-03 12208   0.787E-02    0.249E-02
DAV:   2    -0.161812779912E+04    0.49775E-04   -0.61595E-05 12808   0.122E-02    0.121E-02
DAV:   3    -0.161812778213E+04    0.16993E-04   -0.21607E-05  7832   0.884E-03    0.724E-03
DAV:   4    -0.161812777080E+04    0.11332E-04   -0.75185E-06  7008   0.678E-03    0.332E-03
DAV:   5    -0.161812776469E+04    0.61060E-05   -0.49017E-06  6464   0.424E-03
  10 F= -.16181278E+04 E0= -.16181342E+04  d E =-.462420E-04
       N       E                     dE             d eps       ncg     rms          rms(c)
DAV:   1    -0.161812795978E+04   -0.18898E-03   -0.21360E-02 12208   0.186E-01    0.197E-02
DAV:   2    -0.161812797600E+04   -0.16220E-04   -0.19050E-04 17616   0.202E-02    0.150E-02
DAV:   3    -0.161812797210E+04    0.38928E-05   -0.22046E-05  8904   0.103E-02    0.116E-02
DAV:   4    -0.161812797543E+04   -0.33303E-05   -0.18773E-05  6616   0.684E-03    0.215E-03
DAV:   5    -0.161812797587E+04   -0.43865E-06   -0.42434E-06  6456   0.464E-03
  11 F= -.16181280E+04 E0= -.16181344E+04  d E =-.211182E-03
       N       E                     dE             d eps       ncg     rms          rms(c)
DAV:   1    -0.161812815416E+04   -0.17873E-03   -0.24910E-02 12196   0.201E-01    0.206E-02
DAV:   2    -0.161812816011E+04   -0.59538E-05   -0.21899E-04 17608   0.211E-02    0.158E-02
DAV:   3    -0.161812815326E+04    0.68527E-05   -0.25333E-05  9058   0.105E-02    0.122E-02
DAV:   4    -0.161812814404E+04    0.92189E-05   -0.18007E-05  6912   0.719E-03    0.281E-03
DAV:   5    -0.161812814301E+04    0.10314E-05   -0.50190E-06  6456   0.512E-03
  12 F= -.16181281E+04 E0= -.16181346E+04  d E =-.167140E-03
       N       E                     dE             d eps       ncg     rms          rms(c)
DAV:   1    -0.161812817554E+04   -0.31497E-04   -0.16941E-03 12208   0.571E-02    0.135E-02
DAV:   2    -0.161812817975E+04   -0.42053E-05   -0.18255E-05  6464   0.706E-03    0.688E-03
DAV:   3    -0.161812818581E+04   -0.60674E-05   -0.85505E-06  6400   0.497E-03    0.293E-03
DAV:   4    -0.161812818969E+04   -0.38823E-05   -0.35112E-06  6296   0.404E-03    0.134E-03
DAV:   5    -0.161812819121E+04   -0.15123E-05   -0.16521E-06  6296   0.266E-03
  13 F= -.16181282E+04 E0= -.16181346E+04  d E =-.481959E-04
       N       E                     dE             d eps       ncg     rms          rms(c)
DAV:   1    -0.161812829814E+04   -0.10845E-03   -0.88949E-03 12208   0.120E-01    0.143E-02
DAV:   2    -0.161812829227E+04    0.58691E-05   -0.78629E-05 14472   0.123E-02    0.979E-03
DAV:   3    -0.161812828805E+04    0.42205E-05   -0.11626E-05  7480   0.627E-03    0.697E-03
DAV:   4    -0.161812828199E+04    0.60564E-05   -0.56113E-06  6360   0.485E-03    0.237E-03
DAV:   5    -0.161812828012E+04    0.18783E-05   -0.25006E-06  6296   0.326E-03
  14 F= -.16181283E+04 E0= -.16181347E+04  d E =-.889093E-04
       N       E                     dE             d eps       ncg     rms          rms(c)
DAV:   1    -0.161812835920E+04   -0.77208E-04   -0.91954E-03 12208   0.122E-01    0.121E-02
DAV:   2    -0.161812836622E+04   -0.70172E-05   -0.74763E-05 14280   0.115E-02    0.919E-03
DAV:   3    -0.161812836661E+04   -0.38915E-06   -0.89814E-06  6880   0.534E-03    0.542E-03
DAV:   4    -0.161812836832E+04   -0.17063E-05   -0.53115E-06  6360   0.453E-03    0.138E-03
DAV:   5    -0.161812836806E+04    0.25298E-06   -0.14549E-06  6272   0.257E-03
  15 F= -.16181284E+04 E0= -.16181348E+04  d E =-.879460E-04
       N       E                     dE             d eps       ncg     rms          rms(c)
DAV:   1    -0.161812843762E+04   -0.69305E-04   -0.71438E-03 12208   0.108E-01    0.130E-02
DAV:   2    -0.161812843052E+04    0.70977E-05   -0.61238E-05 12992   0.107E-02    0.863E-03
DAV:   3    -0.161812842579E+04    0.47351E-05   -0.10140E-05  6864   0.560E-03    0.553E-03
DAV:   4    -0.161812842081E+04    0.49761E-05   -0.42072E-06  6320   0.437E-03    0.206E-03
DAV:   5    -0.161812841908E+04    0.17293E-05   -0.20621E-06  6288   0.299E-03
  16 F= -.16181284E+04 E0= -.16181349E+04  d E =-.510200E-04
       N       E                     dE             d eps       ncg     rms          rms(c)
DAV:   1    -0.161812844203E+04   -0.21217E-04   -0.10192E-03 12208   0.427E-02    0.859E-03
DAV:   2    -0.161812844642E+04   -0.43877E-05   -0.95287E-06  6272   0.491E-03    0.460E-03
DAV:   3    -0.161812845033E+04   -0.39107E-05   -0.41895E-06  6272   0.325E-03    0.213E-03
DAV:   4    -0.161812845269E+04   -0.23591E-05   -0.19161E-06  6272   0.250E-03    0.108E-03
DAV:   5    -0.161812845378E+04   -0.10900E-05   -0.94986E-07  6272   0.183E-03
  17 F= -.16181285E+04 E0= -.16181349E+04  d E =-.346933E-04
       N       E                     dE             d eps       ncg     rms          rms(c)
DAV:   1    -0.161812850350E+04   -0.50817E-04   -0.49717E-03 12208   0.895E-02    0.915E-03
DAV:   2    -0.161812850240E+04    0.11013E-05   -0.30414E-05  9280   0.852E-03    0.660E-03
DAV:   3    -0.161812850041E+04    0.19870E-05   -0.92018E-06  6480   0.473E-03    0.304E-03
DAV:   4    -0.161812849919E+04    0.12262E-05   -0.46393E-06  6272   0.391E-03    0.896E-04
DAV:   5    -0.161812849939E+04   -0.19744E-06   -0.22991E-06  6272   0.279E-03
  18 F= -.16181285E+04 E0= -.16181349E+04  d E =-.456099E-04
       N       E                     dE             d eps       ncg     rms          rms(c)
DAV:   1    -0.161812854097E+04   -0.41785E-04   -0.68100E-03 12196   0.105E-01    0.114E-02
DAV:   2    -0.161812854808E+04   -0.71093E-05   -0.58739E-05 12768   0.103E-02    0.819E-03
DAV:   3    -0.161812855038E+04   -0.22956E-05   -0.90885E-06  6466   0.486E-03    0.340E-03
DAV:   4    -0.161812855299E+04   -0.26118E-05   -0.31289E-06  6272   0.323E-03    0.904E-04
DAV:   5    -0.161812855291E+04    0.78995E-07   -0.11674E-06  6272   0.231E-03
  19 F= -.16181286E+04 E0= -.16181350E+04  d E =-.535253E-04
       N       E                     dE             d eps       ncg     rms          rms(c)
DAV:   1    -0.161812856256E+04   -0.95700E-05   -0.11172E-04 11984   0.170E-02    0.597E-03
DAV:   2    -0.161812855541E+04    0.71483E-05   -0.26473E-06  6272   0.276E-03    0.281E-03
DAV:   3    -0.161812855185E+04    0.35648E-05   -0.13380E-06  6272   0.210E-03    0.144E-03
DAV:   4    -0.161812855002E+04    0.18307E-05   -0.55186E-07  6272   0.166E-03    0.622E-04
DAV:   5    -0.161812854896E+04    0.10533E-05   -0.25441E-07  6272   0.100E-03
  20 F= -.16181285E+04 E0= -.16181350E+04  d E =0.394801E-05
       N       E                     dE             d eps       ncg     rms          rms(c)
DAV:   1    -0.161812858000E+04   -0.29981E-04   -0.36732E-03 12178   0.769E-02    0.743E-03
DAV:   2    -0.161812858135E+04   -0.13533E-05   -0.19056E-05  6976   0.708E-03    0.545E-03
DAV:   3    -0.161812858171E+04   -0.35597E-06   -0.73226E-06  6366   0.394E-03    0.107E-03
DAV:   4    -0.161812858213E+04   -0.42543E-06   -0.30643E-06  6272   0.296E-03    0.793E-04
DAV:   5    -0.161812858218E+04   -0.46563E-07   -0.16442E-06  6266   0.224E-03
  21 F= -.16181286E+04 E0= -.16181350E+04  d E =-.332154E-04
       N       E                     dE             d eps       ncg     rms          rms(c)
DAV:   1    -0.161812864806E+04   -0.65928E-04   -0.27982E-02 12100   0.212E-01    0.210E-02
DAV:   2    -0.161812865671E+04   -0.86492E-05   -0.24053E-04 17600   0.201E-02    0.159E-02
DAV:   3    -0.161812864797E+04    0.87430E-05   -0.16386E-05  7980   0.689E-03    0.811E-03
DAV:   4    -0.161812864330E+04    0.46693E-05   -0.10191E-05  7344   0.683E-03    0.243E-03
DAV:   5    -0.161812864289E+04    0.40529E-06   -0.28842E-06  6416   0.447E-03
  22 F= -.16181286E+04 E0= -.16181351E+04  d E =-.607129E-04
       N       E                     dE             d eps       ncg     rms          rms(c)
DAV:   1    -0.161812860261E+04    0.40691E-04   -0.10984E-02 12136   0.134E-01    0.151E-02
DAV:   2    -0.161812860997E+04   -0.73646E-05   -0.79660E-05 14040   0.125E-02    0.105E-02
DAV:   3    -0.161812861155E+04   -0.15759E-05   -0.11130E-05  6300   0.557E-03    0.566E-03
DAV:   4    -0.161812861450E+04   -0.29568E-05   -0.51145E-06  6272   0.481E-03    0.193E-03
DAV:   5    -0.161812861525E+04   -0.74975E-06   -0.20480E-06  6272   0.338E-03
  23 F= -.16181286E+04 E0= -.16181351E+04  d E =0.276386E-04
       N       E                     dE             d eps       ncg     rms          rms(c)
DAV:   1    -0.161812864865E+04   -0.34146E-04   -0.64512E-03 12136   0.102E-01    0.980E-03
DAV:   2    -0.161812864866E+04   -0.77566E-08   -0.32813E-05  8432   0.927E-03    0.720E-03
DAV:   3    -0.161812864650E+04    0.21546E-05   -0.10186E-05  6236   0.488E-03    0.179E-03
DAV:   4    -0.161812864640E+04    0.98096E-07   -0.39982E-06  6272   0.359E-03    0.113E-03
DAV:   5    -0.161812864658E+04   -0.17660E-06   -0.19257E-06  6272   0.256E-03
  24 F= -.16181286E+04 E0= -.16181351E+04  d E =-.313278E-04
       N       E                     dE             d eps       ncg     rms          rms(c)
DAV:   1    -0.161812868553E+04   -0.39121E-04   -0.25702E-02 12076   0.203E-01    0.195E-02
DAV:   2    -0.161812869980E+04   -0.14276E-04   -0.21808E-04 17528   0.190E-02    0.150E-02
DAV:   3    -0.161812869429E+04    0.55134E-05   -0.18680E-05  7604   0.692E-03    0.405E-03
DAV:   4    -0.161812869448E+04   -0.19338E-06   -0.58471E-06  6736   0.560E-03    0.233E-03
DAV:   5    -0.161812869419E+04    0.29101E-06   -0.15781E-06  6336   0.319E-03
  25 F= -.16181287E+04 E0= -.16181352E+04  d E =-.476097E-04
       N       E                     dE             d eps       ncg     rms          rms(c)
DAV:   1    -0.161812870533E+04   -0.10849E-04   -0.10614E-03 12196   0.438E-02    0.879E-03
DAV:   2    -0.161812869506E+04    0.10275E-04   -0.10313E-05  6280   0.526E-03    0.460E-03
DAV:   3    -0.161812869022E+04    0.48388E-05   -0.43071E-06  6266   0.364E-03    0.243E-03
DAV:   4    -0.161812868742E+04    0.27932E-05   -0.19480E-06  6272   0.291E-03    0.116E-03
DAV:   5    -0.161812868598E+04    0.14402E-05   -0.10416E-06  6272   0.197E-03
  26 F= -.16181287E+04 E0= -.16181352E+04  d E =0.820738E-05
       N       E                     dE             d eps       ncg     rms          rms(c)
DAV:   1    -0.161812868851E+04   -0.10847E-05   -0.13612E-04 12104   0.187E-02    0.652E-03
DAV:   2    -0.161812869219E+04   -0.36801E-05   -0.31020E-06  6272   0.300E-03    0.308E-03
DAV:   3    -0.161812869516E+04   -0.29751E-05   -0.15686E-06  6272   0.225E-03    0.161E-03
DAV:   4    -0.161812869691E+04   -0.17435E-05   -0.63282E-07  6272   0.173E-03    0.702E-04
DAV:   5    -0.161812869804E+04   -0.11343E-05   -0.28376E-07  6272   0.104E-03
  27 F= -.16181287E+04 E0= -.16181352E+04  d E =-.120580E-04
       N       E                     dE             d eps       ncg     rms          rms(c)
DAV:   1    -0.161812870174E+04   -0.48350E-05   -0.37964E-04 12088   0.247E-02    0.240E-03
DAV:   2    -0.161812870187E+04   -0.12921E-06   -0.21056E-06  6272   0.236E-03    0.176E-03
DAV:   3    -0.161812870187E+04    0.35670E-08   -0.73958E-07  6260   0.134E-03    0.830E-04
DAV:   4    -0.161812870188E+04   -0.12778E-07   -0.41458E-07  6272   0.113E-03    0.271E-04
DAV:   5    -0.161812870189E+04   -0.52951E-08   -0.20804E-07  6272   0.785E-04
  28 F= -.16181287E+04 E0= -.16181352E+04  d E =-.384442E-05
       N       E                     dE             d eps       ncg     rms          rms(c)
DAV:   1    -0.161812871153E+04   -0.96465E-05   -0.86200E-03 12100   0.118E-01    0.113E-02
DAV:   2    -0.161812871498E+04   -0.34538E-05   -0.65783E-05 13824   0.110E-02    0.873E-03
DAV:   3    -0.161812871306E+04    0.19193E-05   -0.99407E-06  6732   0.518E-03    0.322E-03
DAV:   4    -0.161812871278E+04    0.28043E-06   -0.36723E-06  6368   0.409E-03    0.170E-03
DAV:   5    -0.161812871274E+04    0.40237E-07   -0.12085E-06  6254   0.246E-03
  29 F= -.16181287E+04 E0= -.16181352E+04  d E =-.108550E-04
