LAMMPS data file via write_data, version 2 Aug 2023, timestep = 0, units = metal

300 atoms
5 atom types

0 10.77 xlo xhi
0 17.95 ylo yhi
0 17.95 zlo zhi

Masses

1 58.933
2 58.69
3 51.96
4 55.847
5 54.94

Atoms # atomic

1 1 0 0 0 0 0 0
2 1 1.795 1.795 0 0 0 0
3 1 1.795 0 1.795 0 0 0
4 1 0 1.795 1.795 0 0 0
5 2 3.59 0 0 0 0 0
6 2 5.385 1.795 0 0 0 0
7 1 5.385 0 1.795 0 0 0
8 2 3.59 1.795 1.795 0 0 0
9 2 7.18 0 0 0 0 0
10 3 8.975 1.795 0 0 0 0
11 3 8.975 0 1.795 0 0 0
12 2 7.18 1.795 1.795 0 0 0
13 3 0 3.59 0 0 0 0
14 1 1.795 5.385 0 0 0 0
15 3 1.795 3.59 1.795 0 0 0
16 1 0 5.385 1.795 0 0 0
17 4 3.59 3.59 0 0 0 0
18 4 5.385 5.385 0 0 0 0
19 3 5.385 3.59 1.795 0 0 0
20 3 3.59 5.385 1.795 0 0 0
21 2 7.18 3.59 0 0 0 0
22 4 8.975 5.385 0 0 0 0
23 2 8.975 3.59 1.795 0 0 0
24 2 7.18 5.385 1.795 0 0 0
25 4 0 7.18 0 0 0 0
26 5 1.795 8.975 0 0 0 0
27 1 1.795 7.18 1.795 0 0 0
28 5 0 8.975 1.795 0 0 0
29 3 3.59 7.18 0 0 0 0
30 3 5.385 8.975 0 0 0 0
31 4 5.385 7.18 1.795 0 0 0
32 3 3.59 8.975 1.795 0 0 0
33 2 7.18 7.18 0 0 0 0
34 3 8.975 8.975 0 0 0 0
35 4 8.975 7.18 1.795 0 0 0
36 2 7.18 8.975 1.795 0 0 0
37 5 0 10.77 0 0 0 0
38 5 1.795 12.565 0 0 0 0
39 5 1.795 10.77 1.795 0 0 0
40 5 0 12.565 1.795 0 0 0
41 4 3.59 10.77 0 0 0 0
42 2 5.385 12.565 0 0 0 0
43 4 5.385 10.77 1.795 0 0 0
44 3 3.59 12.565 1.795 0 0 0
45 4 7.18 10.77 0 0 0 0
46 4 8.975 12.565 0 0 0 0
47 3 8.975 10.77 1.795 0 0 0
48 4 7.18 12.565 1.795 0 0 0
49 1 0 14.36 0 0 0 0
50 5 1.795 16.155 0 0 0 0
51 4 1.795 14.36 1.795 0 0 0
52 5 0 16.155 1.795 0 0 0
53 3 3.59 14.36 0 0 0 0
54 2 5.385 16.155 0 0 0 0
55 3 5.385 14.36 1.795 0 0 0
56 5 3.59 16.155 1.795 0 0 0
57 1 7.18 14.36 0 0 0 0
58 4 8.975 16.155 0 0 0 0
59 2 8.975 14.36 1.795 0 0 0
60 5 7.18 16.155 1.795 0 0 0
61 3 0 0 3.59 0 0 0
62 4 1.795 1.795 3.59 0 0 0
63 4 1.795 0 5.385 0 0 0
64 1 0 1.795 5.385 0 0 0
65 5 3.59 0 3.59 0 0 0
66 3 5.385 1.795 3.59 0 0 0
67 5 5.385 0 5.385 0 0 0
68 1 3.59 1.795 5.385 0 0 0
69 2 7.18 0 3.59 0 0 0
70 4 8.975 1.795 3.59 0 0 0
71 2 8.975 0 5.385 0 0 0
72 4 7.18 1.795 5.385 0 0 0
73 1 0 3.59 3.59 0 0 0
74 5 1.795 5.385 3.59 0 0 0
75 5 1.795 3.59 5.385 0 0 0
76 5 0 5.385 5.385 0 0 0
77 2 3.59 3.59 3.59 0 0 0
78 3 5.385 5.385 3.59 0 0 0
79 4 5.385 3.59 5.385 0 0 0
80 3 3.59 5.385 5.385 0 0 0
81 1 7.18 3.59 3.59 0 0 0
82 1 8.975 5.385 3.59 0 0 0
83 1 8.975 3.59 5.385 0 0 0
84 2 7.18 5.385 5.385 0 0 0
85 4 0 7.18 3.59 0 0 0
86 4 1.795 8.975 3.59 0 0 0
87 5 1.795 7.18 5.385 0 0 0
88 5 0 8.975 5.385 0 0 0
89 2 3.59 7.18 3.59 0 0 0
90 4 5.385 8.975 3.59 0 0 0
91 3 5.385 7.18 5.385 0 0 0
92 4 3.59 8.975 5.385 0 0 0
93 5 7.18 7.18 3.59 0 0 0
94 4 8.975 8.975 3.59 0 0 0
95 4 8.975 7.18 5.385 0 0 0
96 4 7.18 8.975 5.385 0 0 0
97 1 0 10.77 3.59 0 0 0
98 2 1.795 12.565 3.59 0 0 0
99 2 1.795 10.77 5.385 0 0 0
100 2 0 12.565 5.385 0 0 0
101 1 3.59 10.77 3.59 0 0 0
102 5 5.385 12.565 3.59 0 0 0
103 3 5.385 10.77 5.385 0 0 0
104 1 3.59 12.565 5.385 0 0 0
105 1 7.18 10.77 3.59 0 0 0
106 5 8.975 12.565 3.59 0 0 0
107 5 8.975 10.77 5.385 0 0 0
108 5 7.18 12.565 5.385 0 0 0
109 3 0 14.36 3.59 0 0 0
110 3 1.795 16.155 3.59 0 0 0
111 4 1.795 14.36 5.385 0 0 0
112 4 0 16.155 5.385 0 0 0
113 5 3.59 14.36 3.59 0 0 0
114 3 5.385 16.155 3.59 0 0 0
115 4 5.385 14.36 5.385 0 0 0
116 5 3.59 16.155 5.385 0 0 0
117 2 7.18 14.36 3.59 0 0 0
118 5 8.975 16.155 3.59 0 0 0
119 1 8.975 14.36 5.385 0 0 0
120 2 7.18 16.155 5.385 0 0 0
121 5 0 0 7.18 0 0 0
122 1 1.795 1.795 7.18 0 0 0
123 2 1.795 0 8.975 0 0 0
124 5 0 1.795 8.975 0 0 0
125 1 3.59 0 7.18 0 0 0
126 4 5.385 1.795 7.18 0 0 0
127 2 5.385 0 8.975 0 0 0
128 2 3.59 1.795 8.975 0 0 0
129 4 7.18 0 7.18 0 0 0
130 3 8.975 1.795 7.18 0 0 0
131 1 8.975 0 8.975 0 0 0
132 1 7.18 1.795 8.975 0 0 0
133 3 0 3.59 7.18 0 0 0
134 3 1.795 5.385 7.18 0 0 0
135 5 1.795 3.59 8.975 0 0 0
136 5 0 5.385 8.975 0 0 0
137 2 3.59 3.59 7.18 0 0 0
138 2 5.385 5.385 7.18 0 0 0
139 5 5.385 3.59 8.975 0 0 0
140 5 3.59 5.385 8.975 0 0 0
141 5 7.18 3.59 7.18 0 0 0
142 5 8.975 5.385 7.18 0 0 0
143 4 8.975 3.59 8.975 0 0 0
144 2 7.18 5.385 8.975 0 0 0
145 5 0 7.18 7.18 0 0 0
146 5 1.795 8.975 7.18 0 0 0
147 2 1.795 7.18 8.975 0 0 0
148 4 0 8.975 8.975 0 0 0
149 4 3.59 7.18 7.18 0 0 0
150 2 5.385 8.975 7.18 0 0 0
151 4 5.385 7.18 8.975 0 0 0
152 3 3.59 8.975 8.975 0 0 0
153 3 7.18 7.18 7.18 0 0 0
154 5 8.975 8.975 7.18 0 0 0
155 5 8.975 7.18 8.975 0 0 0
156 2 7.18 8.975 8.975 0 0 0
157 2 0 10.77 7.18 0 0 0
158 1 1.795 12.565 7.18 0 0 0
159 1 1.795 10.77 8.975 0 0 0
160 5 0 12.565 8.975 0 0 0
161 3 3.59 10.77 7.18 0 0 0
162 4 5.385 12.565 7.18 0 0 0
163 5 5.385 10.77 8.975 0 0 0
164 3 3.59 12.565 8.975 0 0 0
165 1 7.18 10.77 7.18 0 0 0
166 1 8.975 12.565 7.18 0 0 0
167 1 8.975 10.77 8.975 0 0 0
168 3 7.18 12.565 8.975 0 0 0
169 5 0 14.36 7.18 0 0 0
170 4 1.795 16.155 7.18 0 0 0
171 3 1.795 14.36 8.975 0 0 0
172 1 0 16.155 8.975 0 0 0
173 1 3.59 14.36 7.18 0 0 0
174 1 5.385 16.155 7.18 0 0 0
175 5 5.385 14.36 8.975 0 0 0
176 4 3.59 16.155 8.975 0 0 0
177 1 7.18 14.36 7.18 0 0 0
178 2 8.975 16.155 7.18 0 0 0
179 3 8.975 14.36 8.975 0 0 0
180 1 7.18 16.155 8.975 0 0 0
181 3 0 0 10.77 0 0 0
182 3 1.795 1.795 10.77 0 0 0
183 4 1.795 0 12.565 0 0 0
184 5 0 1.795 12.565 0 0 0
185 4 3.59 0 10.77 0 0 0
186 1 5.385 1.795 10.77 0 0 0
187 2 5.385 0 12.565 0 0 0
188 3 3.59 1.795 12.565 0 0 0
189 4 7.18 0 10.77 0 0 0
190 3 8.975 1.795 10.77 0 0 0
191 4 8.975 0 12.565 0 0 0
192 4 7.18 1.795 12.565 0 0 0
193 3 0 3.59 10.77 0 0 0
194 2 1.795 5.385 10.77 0 0 0
195 2 1.795 3.59 12.565 0 0 0
196 2 0 5.385 12.565 0 0 0
197 1 3.59 3.59 10.77 0 0 0
198 1 5.385 5.385 10.77 0 0 0
199 5 5.385 3.59 12.565 0 0 0
200 5 3.59 5.385 12.565 0 0 0
201 3 7.18 3.59 10.77 0 0 0
202 5 8.975 5.385 10.77 0 0 0
203 1 8.975 3.59 12.565 0 0 0
204 2 7.18 5.385 12.565 0 0 0
205 1 0 7.18 10.77 0 0 0
206 2 1.795 8.975 10.77 0 0 0
207 2 1.795 7.18 12.565 0 0 0
208 5 0 8.975 12.565 0 0 0
209 5 3.59 7.18 10.77 0 0 0
210 4 5.385 8.975 10.77 0 0 0
211 2 5.385 7.18 12.565 0 0 0
212 2 3.59 8.975 12.565 0 0 0
213 2 7.18 7.18 10.77 0 0 0
214 2 8.975 8.975 10.77 0 0 0
215 3 8.975 7.18 12.565 0 0 0
216 3 7.18 8.975 12.565 0 0 0
217 2 0 10.77 10.77 0 0 0
218 3 1.795 12.565 10.77 0 0 0
219 5 1.795 10.77 12.565 0 0 0
220 2 0 12.565 12.565 0 0 0
221 5 3.59 10.77 10.77 0 0 0
222 5 5.385 12.565 10.77 0 0 0
223 3 5.385 10.77 12.565 0 0 0
224 4 3.59 12.565 12.565 0 0 0
225 4 7.18 10.77 10.77 0 0 0
226 2 8.975 12.565 10.77 0 0 0
227 5 8.975 10.77 12.565 0 0 0
228 1 7.18 12.565 12.565 0 0 0
229 4 0 14.36 10.77 0 0 0
230 1 1.795 16.155 10.77 0 0 0
231 5 1.795 14.36 12.565 0 0 0
232 4 0 16.155 12.565 0 0 0
233 4 3.59 14.36 10.77 0 0 0
234 3 5.385 16.155 10.77 0 0 0
235 1 5.385 14.36 12.565 0 0 0
236 1 3.59 16.155 12.565 0 0 0
237 1 7.18 14.36 10.77 0 0 0
238 1 8.975 16.155 10.77 0 0 0
239 4 8.975 14.36 12.565 0 0 0
240 4 7.18 16.155 12.565 0 0 0
241 3 0 0 14.36 0 0 0
242 5 1.795 1.795 14.36 0 0 0
243 2 1.795 0 16.155 0 0 0
244 2 0 1.795 16.155 0 0 0
245 4 3.59 0 14.36 0 0 0
246 4 5.385 1.795 14.36 0 0 0
247 5 5.385 0 16.155 0 0 0
248 1 3.59 1.795 16.155 0 0 0
249 5 7.18 0 14.36 0 0 0
250 2 8.975 1.795 14.36 0 0 0
251 1 8.975 0 16.155 0 0 0
252 3 7.18 1.795 16.155 0 0 0
253 2 0 3.59 14.36 0 0 0
254 1 1.795 5.385 14.36 0 0 0
255 4 1.795 3.59 16.155 0 0 0
256 1 0 5.385 16.155 0 0 0
257 1 3.59 3.59 14.36 0 0 0
258 3 5.385 5.385 14.36 0 0 0
259 1 5.385 3.59 16.155 0 0 0
260 5 3.59 5.385 16.155 0 0 0
261 1 7.18 3.59 14.36 0 0 0
262 5 8.975 5.385 14.36 0 0 0
263 3 8.975 3.59 16.155 0 0 0
264 1 7.18 5.385 16.155 0 0 0
265 3 0 7.18 14.36 0 0 0
266 4 1.795 8.975 14.36 0 0 0
267 4 1.795 7.18 16.155 0 0 0
268 4 0 8.975 16.155 0 0 0
269 4 3.59 7.18 14.36 0 0 0
270 1 5.385 8.975 14.36 0 0 0
271 4 5.385 7.18 16.155 0 0 0
272 3 3.59 8.975 16.155 0 0 0
273 3 7.18 7.18 14.36 0 0 0
274 3 8.975 8.975 14.36 0 0 0
275 5 8.975 7.18 16.155 0 0 0
276 4 7.18 8.975 16.155 0 0 0
277 3 0 10.77 14.36 0 0 0
278 3 1.795 12.565 14.36 0 0 0
279 3 1.795 10.77 16.155 0 0 0
280 3 0 12.565 16.155 0 0 0
281 3 3.59 10.77 14.36 0 0 0
282 2 5.385 12.565 14.36 0 0 0
283 2 5.385 10.77 16.155 0 0 0
284 5 3.59 12.565 16.155 0 0 0
285 1 7.18 10.77 14.36 0 0 0
286 2 8.975 12.565 14.36 0 0 0
287 4 8.975 10.77 16.155 0 0 0
288 1 7.18 12.565 16.155 0 0 0
289 3 0 14.36 14.36 0 0 0
290 5 1.795 16.155 14.36 0 0 0
291 1 1.795 14.36 16.155 0 0 0
292 3 0 16.155 16.155 0 0 0
293 2 3.59 14.36 14.36 0 0 0
294 2 5.385 16.155 14.36 0 0 0
295 1 5.385 14.36 16.155 0 0 0
296 2 3.59 16.155 16.155 0 0 0
297 2 7.18 14.36 14.36 0 0 0
298 3 8.975 16.155 14.36 0 0 0
299 2 8.975 14.36 16.155 0 0 0
300 1 7.18 16.155 16.155 0 0 0

Velocities

1 0 0 0
2 0 0 0
3 0 0 0
4 0 0 0
5 0 0 0
6 0 0 0
7 0 0 0
8 0 0 0
9 0 0 0
10 0 0 0
11 0 0 0
12 0 0 0
13 0 0 0
14 0 0 0
15 0 0 0
16 0 0 0
17 0 0 0
18 0 0 0
19 0 0 0
20 0 0 0
21 0 0 0
22 0 0 0
23 0 0 0
24 0 0 0
25 0 0 0
26 0 0 0
27 0 0 0
28 0 0 0
29 0 0 0
30 0 0 0
31 0 0 0
32 0 0 0
33 0 0 0
34 0 0 0
35 0 0 0
36 0 0 0
37 0 0 0
38 0 0 0
39 0 0 0
40 0 0 0
41 0 0 0
42 0 0 0
43 0 0 0
44 0 0 0
45 0 0 0
46 0 0 0
47 0 0 0
48 0 0 0
49 0 0 0
50 0 0 0
51 0 0 0
52 0 0 0
53 0 0 0
54 0 0 0
55 0 0 0
56 0 0 0
57 0 0 0
58 0 0 0
59 0 0 0
60 0 0 0
61 0 0 0
62 0 0 0
63 0 0 0
64 0 0 0
65 0 0 0
66 0 0 0
67 0 0 0
68 0 0 0
69 0 0 0
70 0 0 0
71 0 0 0
72 0 0 0
73 0 0 0
74 0 0 0
75 0 0 0
76 0 0 0
77 0 0 0
78 0 0 0
79 0 0 0
80 0 0 0
81 0 0 0
82 0 0 0
83 0 0 0
84 0 0 0
85 0 0 0
86 0 0 0
87 0 0 0
88 0 0 0
89 0 0 0
90 0 0 0
91 0 0 0
92 0 0 0
93 0 0 0
94 0 0 0
95 0 0 0
96 0 0 0
97 0 0 0
98 0 0 0
99 0 0 0
100 0 0 0
101 0 0 0
102 0 0 0
103 0 0 0
104 0 0 0
105 0 0 0
106 0 0 0
107 0 0 0
108 0 0 0
109 0 0 0
110 0 0 0
111 0 0 0
112 0 0 0
113 0 0 0
114 0 0 0
115 0 0 0
116 0 0 0
117 0 0 0
118 0 0 0
119 0 0 0
120 0 0 0
121 0 0 0
122 0 0 0
123 0 0 0
124 0 0 0
125 0 0 0
126 0 0 0
127 0 0 0
128 0 0 0
129 0 0 0
130 0 0 0
131 0 0 0
132 0 0 0
133 0 0 0
134 0 0 0
135 0 0 0
136 0 0 0
137 0 0 0
138 0 0 0
139 0 0 0
140 0 0 0
141 0 0 0
142 0 0 0
143 0 0 0
144 0 0 0
145 0 0 0
146 0 0 0
147 0 0 0
148 0 0 0
149 0 0 0
150 0 0 0
151 0 0 0
152 0 0 0
153 0 0 0
154 0 0 0
155 0 0 0
156 0 0 0
157 0 0 0
158 0 0 0
159 0 0 0
160 0 0 0
161 0 0 0
162 0 0 0
163 0 0 0
164 0 0 0
165 0 0 0
166 0 0 0
167 0 0 0
168 0 0 0
169 0 0 0
170 0 0 0
171 0 0 0
172 0 0 0
173 0 0 0
174 0 0 0
175 0 0 0
176 0 0 0
177 0 0 0
178 0 0 0
179 0 0 0
180 0 0 0
181 0 0 0
182 0 0 0
183 0 0 0
184 0 0 0
185 0 0 0
186 0 0 0
187 0 0 0
188 0 0 0
189 0 0 0
190 0 0 0
191 0 0 0
192 0 0 0
193 0 0 0
194 0 0 0
195 0 0 0
196 0 0 0
197 0 0 0
198 0 0 0
199 0 0 0
200 0 0 0
201 0 0 0
202 0 0 0
203 0 0 0
204 0 0 0
205 0 0 0
206 0 0 0
207 0 0 0
208 0 0 0
209 0 0 0
210 0 0 0
211 0 0 0
212 0 0 0
213 0 0 0
214 0 0 0
215 0 0 0
216 0 0 0
217 0 0 0
218 0 0 0
219 0 0 0
220 0 0 0
221 0 0 0
222 0 0 0
223 0 0 0
224 0 0 0
225 0 0 0
226 0 0 0
227 0 0 0
228 0 0 0
229 0 0 0
230 0 0 0
231 0 0 0
232 0 0 0
233 0 0 0
234 0 0 0
235 0 0 0
236 0 0 0
237 0 0 0
238 0 0 0
239 0 0 0
240 0 0 0
241 0 0 0
242 0 0 0
243 0 0 0
244 0 0 0
245 0 0 0
246 0 0 0
247 0 0 0
248 0 0 0
249 0 0 0
250 0 0 0
251 0 0 0
252 0 0 0
253 0 0 0
254 0 0 0
255 0 0 0
256 0 0 0
257 0 0 0
258 0 0 0
259 0 0 0
260 0 0 0
261 0 0 0
262 0 0 0
263 0 0 0
264 0 0 0
265 0 0 0
266 0 0 0
267 0 0 0
268 0 0 0
269 0 0 0
270 0 0 0
271 0 0 0
272 0 0 0
273 0 0 0
274 0 0 0
275 0 0 0
276 0 0 0
277 0 0 0
278 0 0 0
279 0 0 0
280 0 0 0
281 0 0 0
282 0 0 0
283 0 0 0
284 0 0 0
285 0 0 0
286 0 0 0
287 0 0 0
288 0 0 0
289 0 0 0
290 0 0 0
291 0 0 0
292 0 0 0
293 0 0 0
294 0 0 0
295 0 0 0
296 0 0 0
297 0 0 0
298 0 0 0
299 0 0 0
300 0 0 0
