       N       E                     dE             d eps       ncg     rms          rms(c)
DAV:   1     0.193688046098E+04    0.19369E+04   -0.27703E+05 11188   0.142E+03
DAV:   2    -0.118636168263E+04   -0.31232E+04   -0.30024E+04 12902   0.266E+02
DAV:   3    -0.157711731008E+04   -0.39076E+03   -0.35521E+03 17440   0.823E+01
DAV:   4    -0.160225022229E+04   -0.25133E+02   -0.22649E+02 15840   0.163E+01
DAV:   5    -0.160341598105E+04   -0.11658E+01   -0.11356E+01 16768   0.451E+00    0.377E+01
DAV:   6    -0.156853161649E+04    0.34884E+02   -0.98637E+01 17312   0.141E+01    0.225E+01
DAV:   7    -0.155994936657E+04    0.85822E+01   -0.88694E+01 17704   0.152E+01    0.184E+01
DAV:   8    -0.154743754906E+04    0.12512E+02   -0.64611E+01 16240   0.113E+01    0.107E+01
DAV:   9    -0.154158246066E+04    0.58551E+01   -0.27556E+01 16032   0.799E+00    0.316E+00
DAV:  10    -0.154141703529E+04    0.16543E+00   -0.49371E+00 15624   0.312E+00    0.144E+00
DAV:  11    -0.154142538767E+04   -0.83524E-02   -0.62313E-01 15088   0.118E+00    0.110E+00
DAV:  12    -0.154140286626E+04    0.22521E-01   -0.21195E-01 14672   0.628E-01    0.638E-01
DAV:  13    -0.154138908874E+04    0.13778E-01   -0.61099E-02 14240   0.386E-01    0.358E-01
DAV:  14    -0.154138605834E+04    0.30304E-02   -0.19909E-02 16448   0.219E-01    0.220E-01
DAV:  15    -0.154138417311E+04    0.18852E-02   -0.77788E-03 15864   0.143E-01    0.104E-01
DAV:  16    -0.154138402003E+04    0.15307E-03   -0.23489E-03 14568   0.665E-02    0.577E-02
DAV:  17    -0.154138397886E+04    0.41176E-04   -0.65259E-04 14992   0.373E-02    0.285E-02
DAV:  18    -0.154138397281E+04    0.60452E-05   -0.19745E-04 14968   0.215E-02    0.158E-02
DAV:  19    -0.154138396488E+04    0.79323E-05   -0.57061E-05 10920   0.131E-02
   1 F= -.15413840E+04 E0= -.15413808E+04  d E =-.154138E+04
       N       E                     dE             d eps       ncg     rms          rms(c)
DAV:   1    -0.154516089313E+04   -0.37769E+01   -0.26642E+03 11172   0.798E+01    0.277E+01
DAV:   2    -0.151738276995E+04    0.27778E+02   -0.17174E+02 18248   0.183E+01    0.187E+01
DAV:   3    -0.151070421806E+04    0.66786E+01   -0.10316E+02 18760   0.141E+01    0.154E+01
DAV:   4    -0.150146560401E+04    0.92386E+01   -0.48330E+01 20448   0.882E+00    0.102E+01
DAV:   5    -0.149748533154E+04    0.39803E+01   -0.30915E+01 17848   0.660E+00    0.443E+00
DAV:   6    -0.149695938637E+04    0.52595E+00   -0.64336E+00 17624   0.346E+00    0.302E+00
DAV:   7    -0.149676295217E+04    0.19643E+00   -0.13192E+00 17256   0.156E+00    0.211E+00
DAV:   8    -0.149669003049E+04    0.72922E-01   -0.45992E-01 18376   0.745E-01    0.108E+00
DAV:   9    -0.149668098706E+04    0.90434E-02   -0.26289E-01 17840   0.491E-01    0.503E-01
DAV:  10    -0.149668145651E+04   -0.46945E-03   -0.61324E-02 18072   0.337E-01    0.397E-01
DAV:  11    -0.149667567065E+04    0.57859E-02   -0.26432E-02 18568   0.226E-01    0.183E-01
DAV:  12    -0.149667578431E+04   -0.11366E-03   -0.10144E-02 17736   0.111E-01    0.104E-01
DAV:  13    -0.149667634420E+04   -0.55989E-03   -0.27963E-03 16608   0.625E-02    0.571E-02
DAV:  14    -0.149667665349E+04   -0.30929E-03   -0.11278E-03 17808   0.463E-02    0.612E-02
DAV:  15    -0.149667657555E+04    0.77942E-04   -0.51224E-04 17624   0.326E-02    0.401E-02
DAV:  16    -0.149667652871E+04    0.46841E-04   -0.28869E-04 18512   0.203E-02    0.137E-02
DAV:  17    -0.149667653269E+04   -0.39786E-05   -0.44933E-05  8936   0.886E-03
   2 F= -.14966765E+04 E0= -.14966809E+04  d E =0.447074E+02
       N       E                     dE             d eps       ncg     rms          rms(c)
DAV:   1    -0.157469322141E+04   -0.78017E+02   -0.13426E+03 11172   0.628E+01    0.193E+01
DAV:   2    -0.155989934123E+04    0.14794E+02   -0.48596E+01 17152   0.112E+01    0.104E+01
DAV:   3    -0.155761501043E+04    0.22843E+01   -0.32209E+01 18200   0.855E+00    0.878E+00
DAV:   4    -0.155404178195E+04    0.35732E+01   -0.15568E+01 17336   0.572E+00    0.530E+00
DAV:   5    -0.155268756667E+04    0.13542E+01   -0.83321E+00 15928   0.407E+00    0.177E+00
DAV:   6    -0.155260856700E+04    0.79000E-01   -0.15979E+00 14816   0.180E+00    0.952E-01
DAV:   7    -0.155261582532E+04   -0.72583E-02   -0.22034E-01 14832   0.692E-01    0.755E-01
DAV:   8    -0.155261516819E+04    0.65713E-03   -0.55291E-02 15720   0.311E-01    0.436E-01
DAV:   9    -0.155262877762E+04   -0.13609E-01   -0.78477E-02 16480   0.304E-01    0.302E-01
DAV:  10    -0.155262726738E+04    0.15102E-02   -0.13958E-02 15656   0.191E-01    0.154E-01
DAV:  11    -0.155262693581E+04    0.33157E-03   -0.39388E-03 16648   0.848E-02    0.834E-02
DAV:  12    -0.155262711107E+04   -0.17525E-03   -0.19708E-03 16624   0.575E-02    0.465E-02
DAV:  13    -0.155262739217E+04   -0.28110E-03   -0.83417E-04 14376   0.378E-02    0.281E-02
DAV:  14    -0.155262739311E+04   -0.94351E-06   -0.14012E-04 13072   0.178E-02    0.171E-02
DAV:  15    -0.155262738540E+04    0.77123E-05   -0.29583E-05  7216   0.869E-03
   3 F= -.15526274E+04 E0= -.15526526E+04  d E =-.559509E+02
       N       E                     dE             d eps       ncg     rms          rms(c)
DAV:   1    -0.155308284331E+04   -0.45545E+00   -0.29544E+01 11172   0.771E+00    0.128E+00
DAV:   2    -0.155305212838E+04    0.30715E-01   -0.46886E-01 16144   0.824E-01    0.772E-01
DAV:   3    -0.155304581057E+04    0.63178E-02   -0.13461E-01 18272   0.546E-01    0.664E-01
DAV:   4    -0.155302440730E+04    0.21403E-01   -0.69262E-02 16624   0.403E-01    0.330E-01
DAV:   5    -0.155302017353E+04    0.42338E-02   -0.31704E-02 14688   0.259E-01    0.131E-01
DAV:   6    -0.155301990420E+04    0.26933E-03   -0.73941E-03 15168   0.133E-01    0.819E-02
DAV:   7    -0.155301986489E+04    0.39308E-04   -0.15109E-03 15912   0.623E-02    0.621E-02
DAV:   8    -0.155301980153E+04    0.63362E-04   -0.61443E-04 15976   0.351E-02    0.326E-02
DAV:   9    -0.155301983269E+04   -0.31159E-04   -0.25336E-04 15232   0.215E-02    0.202E-02
DAV:  10    -0.155301984044E+04   -0.77585E-05   -0.70243E-05 12464   0.147E-02
   4 F= -.15530198E+04 E0= -.15530416E+04  d E =-.392455E+00
       N       E                     dE             d eps       ncg     rms          rms(c)
DAV:   1    -0.155308531709E+04   -0.65484E-01   -0.47918E+00 11172   0.297E+00    0.486E-01
DAV:   2    -0.155309303504E+04   -0.77180E-02   -0.13175E-01 18328   0.553E-01    0.471E-01
DAV:   3    -0.155308039062E+04    0.12644E-01   -0.54324E-02 18056   0.366E-01    0.238E-01
DAV:   4    -0.155307832036E+04    0.20703E-02   -0.10428E-02 16144   0.138E-01    0.153E-01
DAV:   5    -0.155307754875E+04    0.77161E-03   -0.44854E-03 15288   0.100E-01    0.849E-02
DAV:   6    -0.155307728704E+04    0.26170E-03   -0.19022E-03 15088   0.680E-02    0.470E-02
DAV:   7    -0.155307720357E+04    0.83470E-04   -0.51910E-04 15528   0.380E-02    0.283E-02
DAV:   8    -0.155307719735E+04    0.62268E-05   -0.14011E-04 14336   0.161E-02    0.166E-02
DAV:   9    -0.155307720262E+04   -0.52702E-05   -0.49549E-05 10320   0.101E-02
   5 F= -.15530772E+04 E0= -.15530993E+04  d E =-.573622E-01
       N       E                     dE             d eps       ncg     rms          rms(c)
DAV:   1    -0.155309994990E+04   -0.22753E-01   -0.24743E+00 11186   0.211E+00    0.244E-01
DAV:   2    -0.155310531491E+04   -0.53650E-02   -0.45357E-02 17592   0.310E-01    0.287E-01
DAV:   3    -0.155310063819E+04    0.46767E-02   -0.16108E-02 17920   0.201E-01    0.134E-01
DAV:   4    -0.155310031649E+04    0.32170E-03   -0.28555E-03 16072   0.706E-02    0.908E-02
DAV:   5    -0.155310012128E+04    0.19521E-03   -0.15057E-03 14640   0.552E-02    0.410E-02
DAV:   6    -0.155310010867E+04    0.12614E-04   -0.52370E-04 15920   0.365E-02    0.257E-02
DAV:   7    -0.155310008139E+04    0.27280E-04   -0.17097E-04 15432   0.210E-02    0.128E-02
DAV:   8    -0.155310007285E+04    0.85397E-05   -0.29884E-05  7368   0.879E-03
   6 F= -.15531001E+04 E0= -.15531216E+04  d E =-.228702E-01
       N       E                     dE             d eps       ncg     rms          rms(c)
DAV:   1    -0.155311014798E+04   -0.10067E-01   -0.60230E-01 11298   0.108E+00    0.216E-01
DAV:   2    -0.155311091659E+04   -0.76861E-03   -0.19364E-02 18232   0.229E-01    0.209E-01
DAV:   3    -0.155310832414E+04    0.25924E-02   -0.10206E-02 18024   0.159E-01    0.102E-01
DAV:   4    -0.155310787259E+04    0.45155E-03   -0.20050E-03 15816   0.601E-02    0.631E-02
DAV:   5    -0.155310767303E+04    0.19956E-03   -0.90669E-04 15336   0.461E-02    0.337E-02
DAV:   6    -0.155310760684E+04    0.66189E-04   -0.33683E-04 15304   0.292E-02    0.192E-02
DAV:   7    -0.155310758930E+04    0.17541E-04   -0.87861E-05 13216   0.160E-02    0.112E-02
DAV:   8    -0.155310759045E+04   -0.11566E-05   -0.20708E-05  6688   0.737E-03
   7 F= -.15531076E+04 E0= -.15531294E+04  d E =-.751761E-02
       N       E                     dE             d eps       ncg     rms          rms(c)
DAV:   1    -0.155311379522E+04   -0.62059E-02   -0.43573E-01 11228   0.897E-01    0.118E-01
DAV:   2    -0.155311465025E+04   -0.85503E-03   -0.73349E-03 17336   0.128E-01    0.130E-01
DAV:   3    -0.155311372985E+04    0.92040E-03   -0.30618E-03 17841   0.882E-02    0.631E-02
DAV:   4    -0.155311366743E+04    0.62415E-04   -0.65312E-04 14712   0.348E-02    0.349E-02
DAV:   5    -0.155311365419E+04    0.13246E-04   -0.29556E-04 14880   0.258E-02    0.161E-02
DAV:   6    -0.155311365311E+04    0.10804E-05   -0.84181E-05 13368   0.160E-02
   8 F= -.15531137E+04 E0= -.15531352E+04  d E =-.606265E-02
       N       E                     dE             d eps       ncg     rms          rms(c)
DAV:   1    -0.155311705928E+04   -0.34051E-02   -0.29575E-01 11277   0.726E-01    0.100E-01
DAV:   2    -0.155311806540E+04   -0.10061E-02   -0.72755E-03 18048   0.141E-01    0.134E-01
DAV:   3    -0.155311686939E+04    0.11960E-02   -0.36101E-03 17840   0.955E-02    0.501E-02
DAV:   4    -0.155311679480E+04    0.74591E-04   -0.46916E-04 16000   0.283E-02    0.346E-02
DAV:   5    -0.155311674782E+04    0.46974E-04   -0.21013E-04 15192   0.216E-02    0.196E-02
DAV:   6    -0.155311672800E+04    0.19822E-04   -0.91890E-05 13688   0.161E-02    0.112E-02
DAV:   7    -0.155311672092E+04    0.70745E-05   -0.24596E-05  7128   0.951E-03
   9 F= -.15531167E+04 E0= -.15531383E+04  d E =-.306782E-02
       N       E                     dE             d eps       ncg     rms          rms(c)
DAV:   1    -0.155311821195E+04   -0.14839E-02   -0.13558E-01 11270   0.496E-01    0.623E-02
DAV:   2    -0.155311855051E+04   -0.33856E-03   -0.22348E-03 17192   0.735E-02    0.755E-02
DAV:   3    -0.155311822249E+04    0.32802E-03   -0.10053E-03 17520   0.509E-02    0.335E-02
DAV:   4    -0.155311822039E+04    0.21063E-05   -0.18638E-04 14600   0.186E-02    0.178E-02
DAV:   5    -0.155311822468E+04   -0.42929E-05   -0.71136E-05 12448   0.135E-02
  10 F= -.15531182E+04 E0= -.15531397E+04  d E =-.150375E-02
       N       E                     dE             d eps       ncg     rms          rms(c)
DAV:   1    -0.155311924326E+04   -0.10229E-02   -0.52496E-02 11312   0.314E-01    0.543E-02
DAV:   2    -0.155311933488E+04   -0.91622E-04   -0.13576E-03 18104   0.614E-02    0.596E-02
DAV:   3    -0.155311910999E+04    0.22489E-03   -0.73050E-04 17904   0.429E-02    0.262E-02
DAV:   4    -0.155311907177E+04    0.38217E-04   -0.12180E-04 14632   0.146E-02    0.161E-02
DAV:   5    -0.155311904757E+04    0.24200E-04   -0.49688E-05  9904   0.118E-02    0.835E-03
DAV:   6    -0.155311903978E+04    0.77919E-05   -0.15309E-05  6704   0.821E-03
  11 F= -.15531190E+04 E0= -.15531405E+04  d E =-.815103E-03
       N       E                     dE             d eps       ncg     rms          rms(c)
DAV:   1    -0.155311974599E+04   -0.69842E-03   -0.65525E-02 11242   0.340E-01    0.370E-02
DAV:   2    -0.155311994004E+04   -0.19405E-03   -0.10751E-03 17520   0.516E-02    0.526E-02
DAV:   3    -0.155311977028E+04    0.16977E-03   -0.48010E-04 17634   0.352E-02    0.211E-02
DAV:   4    -0.155311977175E+04   -0.14731E-05   -0.66625E-05 11816   0.114E-02    0.122E-02
DAV:   5    -0.155311977436E+04   -0.26063E-05   -0.23278E-05  7136   0.905E-03
  12 F= -.15531198E+04 E0= -.15531412E+04  d E =-.734574E-03
       N       E                     dE             d eps       ncg     rms          rms(c)
DAV:   1    -0.155312024238E+04   -0.47063E-03   -0.39854E-02 11312   0.267E-01    0.346E-02
DAV:   2    -0.155312033105E+04   -0.88671E-04   -0.79885E-04 18048   0.454E-02    0.442E-02
DAV:   3    -0.155312020564E+04    0.12541E-03   -0.37738E-04 17816   0.309E-02    0.180E-02
DAV:   4    -0.155312018960E+04    0.16041E-04   -0.44683E-05  9472   0.953E-03    0.114E-02
DAV:   5    -0.155312017843E+04    0.11170E-04   -0.19752E-05  6576   0.802E-03    0.601E-03
DAV:   6    -0.155312017409E+04    0.43346E-05   -0.71190E-06  6328   0.592E-03
  13 F= -.15531202E+04 E0= -.15531416E+04  d E =-.399737E-03
       N       E                     dE             d eps       ncg     rms          rms(c)
DAV:   1    -0.155312040776E+04   -0.22933E-03   -0.15010E-02 11312   0.166E-01    0.219E-02
DAV:   2    -0.155312043496E+04   -0.27208E-04   -0.18771E-04 16432   0.196E-02    0.198E-02
DAV:   3    -0.155312041960E+04    0.15362E-04   -0.58153E-05 10945   0.132E-02    0.117E-02
DAV:   4    -0.155312042677E+04   -0.71672E-05   -0.19182E-05  6360   0.719E-03    0.507E-03
DAV:   5    -0.155312043182E+04   -0.50466E-05   -0.71659E-06  6216   0.524E-03
  14 F= -.15531204E+04 E0= -.15531419E+04  d E =-.257724E-03
       N       E                     dE             d eps       ncg     rms          rms(c)
DAV:   1    -0.155312068341E+04   -0.25664E-03   -0.19145E-02 11312   0.184E-01    0.216E-02
DAV:   2    -0.155312072057E+04   -0.37164E-04   -0.31911E-04 17920   0.287E-02    0.283E-02
DAV:   3    -0.155312066949E+04    0.51084E-04   -0.14421E-04 15896   0.195E-02    0.118E-02
DAV:   4    -0.155312066172E+04    0.77752E-05   -0.17088E-05  6696   0.674E-03    0.714E-03
DAV:   5    -0.155312065609E+04    0.56248E-05   -0.89496E-06  6216   0.562E-03
  15 F= -.15531207E+04 E0= -.15531421E+04  d E =-.224275E-03
       N       E                     dE             d eps       ncg     rms          rms(c)
DAV:   1    -0.155312084183E+04   -0.18012E-03   -0.19491E-02 11270   0.185E-01    0.179E-02
DAV:   2    -0.155312087482E+04   -0.32987E-04   -0.22152E-04 17104   0.214E-02    0.203E-02
DAV:   3    -0.155312085480E+04    0.20021E-04   -0.57083E-05 10873   0.134E-02    0.111E-02
DAV:   4    -0.155312085824E+04   -0.34450E-05   -0.19107E-05  6320   0.686E-03    0.438E-03
DAV:   5    -0.155312086073E+04   -0.24883E-05   -0.67831E-06  6208   0.539E-03
  16 F= -.15531209E+04 E0= -.15531423E+04  d E =-.204639E-03
       N       E                     dE             d eps       ncg     rms          rms(c)
DAV:   1    -0.155312097703E+04   -0.11879E-03   -0.68802E-03 11326   0.112E-01    0.152E-02
DAV:   2    -0.155312097494E+04    0.20896E-05   -0.10225E-04 14464   0.168E-02    0.154E-02
DAV:   3    -0.155312095949E+04    0.15450E-04   -0.42327E-05  9576   0.119E-02    0.759E-03
DAV:   4    -0.155312095356E+04    0.59319E-05   -0.10905E-05  6136   0.535E-03    0.455E-03
DAV:   5    -0.155312094839E+04    0.51711E-05   -0.54529E-06  6016   0.435E-03
  17 F= -.15531209E+04 E0= -.15531424E+04  d E =-.876621E-04
       N       E                     dE             d eps       ncg     rms          rms(c)
DAV:   1    -0.155312104297E+04   -0.89412E-04   -0.70168E-03 11298   0.111E-01    0.119E-02
DAV:   2    -0.155312105487E+04   -0.11892E-04   -0.64831E-05 11640   0.119E-02    0.110E-02
DAV:   3    -0.155312105126E+04    0.36039E-05   -0.17251E-05  7024   0.785E-03    0.702E-03
DAV:   4    -0.155312105603E+04   -0.47690E-05   -0.90217E-06  5960   0.432E-03    0.249E-03
DAV:   5    -0.155312105787E+04   -0.18342E-05   -0.34501E-06  5936   0.345E-03
  18 F= -.15531211E+04 E0= -.15531425E+04  d E =-.109474E-03
       N       E                     dE             d eps       ncg     rms          rms(c)
DAV:   1    -0.155312116151E+04   -0.10548E-03   -0.93895E-03 11270   0.128E-01    0.125E-02
DAV:   2    -0.155312116803E+04   -0.65181E-05   -0.10133E-04 14544   0.147E-02    0.133E-02
DAV:   3    -0.155312115857E+04    0.94577E-05   -0.23599E-05  7762   0.976E-03    0.769E-03
DAV:   4    -0.155312115535E+04    0.32234E-05   -0.11126E-05  6000   0.495E-03    0.408E-03
DAV:   5    -0.155312115316E+04    0.21819E-05   -0.52772E-06  5968   0.448E-03
  19 F= -.15531212E+04 E0= -.15531426E+04  d E =-.952990E-04
       N       E                     dE             d eps       ncg     rms          rms(c)
DAV:   1    -0.155312121509E+04   -0.59747E-04   -0.51204E-03 11298   0.950E-02    0.952E-03
DAV:   2    -0.155312122314E+04   -0.80480E-05   -0.36175E-05  8776   0.980E-03    0.839E-03
DAV:   3    -0.155312122203E+04    0.11135E-05   -0.12522E-05  6552   0.662E-03    0.550E-03
DAV:   4    -0.155312122635E+04   -0.43230E-05   -0.71683E-06  5880   0.400E-03    0.185E-03
DAV:   5    -0.155312122778E+04   -0.14307E-05   -0.32272E-06  5880   0.324E-03
  20 F= -.15531212E+04 E0= -.15531427E+04  d E =-.746172E-04
       N       E                     dE             d eps       ncg     rms          rms(c)
DAV:   1    -0.155312128678E+04   -0.60431E-04   -0.35014E-03 11298   0.787E-02    0.927E-03
DAV:   2    -0.155312128139E+04    0.53897E-05   -0.26897E-05  7432   0.902E-03    0.711E-03
DAV:   3    -0.155312127919E+04    0.22022E-05   -0.11379E-05  6472   0.683E-03    0.494E-03
DAV:   4    -0.155312127551E+04    0.36785E-05   -0.56719E-06  5880   0.391E-03    0.259E-03
DAV:   5    -0.155312127356E+04    0.19542E-05   -0.33089E-06  5880   0.320E-03
  21 F= -.15531213E+04 E0= -.15531427E+04  d E =-.457753E-04
       N       E                     dE             d eps       ncg     rms          rms(c)
DAV:   1    -0.155312131971E+04   -0.44200E-04   -0.36306E-03 11270   0.795E-02    0.773E-03
DAV:   2    -0.155312132419E+04   -0.44793E-05   -0.24510E-05  7856   0.747E-03    0.594E-03
DAV:   3    -0.155312132499E+04   -0.79994E-06   -0.89020E-06  6027   0.491E-03    0.453E-03
DAV:   4    -0.155312132790E+04   -0.29096E-05   -0.57325E-06  5859   0.368E-03    0.129E-03
DAV:   5    -0.155312132873E+04   -0.82731E-06   -0.28467E-06  5859   0.285E-03
  22 F= -.15531213E+04 E0= -.15531428E+04  d E =-.551701E-04
       N       E                     dE             d eps       ncg     rms          rms(c)
DAV:   1    -0.155312137885E+04   -0.50948E-04   -0.42169E-03 11270   0.855E-02    0.817E-03
DAV:   2    -0.155312137725E+04    0.15946E-05   -0.32790E-05  8544   0.835E-03    0.637E-03
DAV:   3    -0.155312137646E+04    0.79530E-06   -0.96198E-06  6112   0.548E-03    0.486E-03
DAV:   4    -0.155312137395E+04    0.25124E-05   -0.51222E-06  5859   0.362E-03    0.222E-03
DAV:   5    -0.155312137289E+04    0.10593E-05   -0.28817E-06  5859   0.291E-03
  23 F= -.15531214E+04 E0= -.15531429E+04  d E =-.441592E-04
       N       E                     dE             d eps       ncg     rms          rms(c)
DAV:   1    -0.155312139821E+04   -0.24266E-04   -0.15808E-03 11312   0.527E-02    0.550E-03
DAV:   2    -0.155312140183E+04   -0.36232E-05   -0.11301E-05  5883   0.509E-03    0.391E-03
DAV:   3    -0.155312140292E+04   -0.10852E-05   -0.45587E-06  5859   0.352E-03    0.299E-03
DAV:   4    -0.155312140514E+04   -0.22233E-05   -0.27333E-06  5859   0.266E-03    0.119E-03
DAV:   5    -0.155312140614E+04   -0.99177E-06   -0.15353E-06  5859   0.203E-03
  24 F= -.15531214E+04 E0= -.15531429E+04  d E =-.332491E-04
       N       E                     dE             d eps       ncg     rms          rms(c)
DAV:   1    -0.155312144227E+04   -0.37124E-04   -0.26562E-03 11270   0.679E-02    0.645E-03
DAV:   2    -0.155312144055E+04    0.17165E-05   -0.16905E-05  7320   0.642E-03    0.489E-03
DAV:   3    -0.155312144015E+04    0.40294E-06   -0.65636E-06  5993   0.429E-03    0.378E-03
DAV:   4    -0.155312143823E+04    0.19171E-05   -0.38252E-06  5859   0.304E-03    0.155E-03
DAV:   5    -0.155312143765E+04    0.58191E-06   -0.21549E-06  5852   0.243E-03
  25 F= -.15531214E+04 E0= -.15531429E+04  d E =-.315139E-04
       N       E                     dE             d eps       ncg     rms          rms(c)
DAV:   1    -0.155312146810E+04   -0.29871E-04   -0.30064E-03 11270   0.722E-02    0.661E-03
DAV:   2    -0.155312147149E+04   -0.33845E-05   -0.19028E-05  6936   0.646E-03    0.487E-03
DAV:   3    -0.155312147284E+04   -0.13567E-05   -0.72652E-06  5906   0.410E-03    0.353E-03
DAV:   4    -0.155312147477E+04   -0.19310E-05   -0.43921E-06  5859   0.338E-03    0.105E-03
DAV:   5    -0.155312147533E+04   -0.55546E-06   -0.23600E-06  5859   0.246E-03
  26 F= -.15531215E+04 E0= -.15531430E+04  d E =-.376800E-04
       N       E                     dE             d eps       ncg     rms          rms(c)
DAV:   1    -0.155312149602E+04   -0.21247E-04   -0.91196E-04 11284   0.402E-02    0.493E-03
DAV:   2    -0.155312149244E+04    0.35778E-05   -0.78363E-06  5859   0.443E-03    0.320E-03
DAV:   3    -0.155312149161E+04    0.82921E-06   -0.34150E-06  5845   0.344E-03    0.255E-03
DAV:   4    -0.155312148986E+04    0.17487E-05   -0.18275E-06  5859   0.235E-03    0.130E-03
DAV:   5    -0.155312148877E+04    0.10912E-05   -0.11439E-06  5859   0.180E-03
  27 F= -.15531215E+04 E0= -.15531430E+04  d E =-.134447E-04
       N       E                     dE             d eps       ncg     rms          rms(c)
DAV:   1    -0.155312150927E+04   -0.19408E-04   -0.15811E-03 11284   0.523E-02    0.479E-03
DAV:   2    -0.155312151117E+04   -0.19013E-05   -0.97374E-06  6470   0.466E-03    0.358E-03
DAV:   3    -0.155312151188E+04   -0.70836E-06   -0.38110E-06  5838   0.298E-03    0.267E-03
DAV:   4    -0.155312151321E+04   -0.13307E-05   -0.24520E-06  5817   0.246E-03    0.626E-04
DAV:   5    -0.155312151340E+04   -0.19147E-06   -0.12463E-06  5817   0.178E-03
  28 F= -.15531215E+04 E0= -.15531430E+04  d E =-.246309E-04
       N       E                     dE             d eps       ncg     rms          rms(c)
DAV:   1    -0.155312154564E+04   -0.32427E-04   -0.39937E-03 11270   0.831E-02    0.737E-03
DAV:   2    -0.155312154463E+04    0.10111E-05   -0.24387E-05  8112   0.733E-03    0.546E-03
DAV:   3    -0.155312154431E+04    0.31446E-06   -0.85418E-06  6001   0.453E-03    0.409E-03
DAV:   4    -0.155312154267E+04    0.16495E-05   -0.49627E-06  5880   0.362E-03    0.147E-03
DAV:   5    -0.155312154239E+04    0.27081E-06   -0.27575E-06  5880   0.267E-03
  29 F= -.15531215E+04 E0= -.15531430E+04  d E =-.289897E-04
       N       E                     dE             d eps       ncg     rms          rms(c)
DAV:   1    -0.155312154447E+04   -0.18057E-05   -0.15643E-04 11094   0.183E-02    0.420E-03
DAV:   2    -0.155312154790E+04   -0.34329E-05   -0.32403E-06  5817   0.295E-03    0.226E-03
DAV:   3    -0.155312154906E+04   -0.11595E-05   -0.15912E-06  5817   0.267E-03    0.190E-03
DAV:   4    -0.155312155051E+04   -0.14431E-05   -0.77286E-07  5817   0.167E-03    0.886E-04
DAV:   5    -0.155312155169E+04   -0.11840E-05   -0.47925E-07  5817   0.114E-03
  30 F= -.15531216E+04 E0= -.15531430E+04  d E =-.929609E-05
       N       E                     dE             d eps       ncg     rms          rms(c)
DAV:   1    -0.155312157158E+04   -0.21070E-04   -0.14264E-03 11270   0.498E-02    0.464E-03
DAV:   2    -0.155312157024E+04    0.13344E-05   -0.82571E-06  5849   0.436E-03    0.337E-03
DAV:   3    -0.155312156984E+04    0.40139E-06   -0.31433E-06  5810   0.275E-03    0.255E-03
DAV:   4    -0.155312156864E+04    0.11958E-05   -0.18188E-06  5817   0.216E-03    0.925E-04
DAV:   5    -0.155312156833E+04    0.31077E-06   -0.10225E-06  5810   0.158E-03
  31 F= -.15531216E+04 E0= -.15531431E+04  d E =-.166432E-04
       N       E                     dE             d eps       ncg     rms          rms(c)
DAV:   1    -0.155312159146E+04   -0.22820E-04   -0.37010E-03 11270   0.799E-02    0.684E-03
DAV:   2    -0.155312159342E+04   -0.19535E-05   -0.20927E-05  7696   0.680E-03    0.512E-03
DAV:   3    -0.155312159438E+04   -0.95779E-06   -0.85149E-06  5968   0.408E-03    0.231E-03
DAV:   4    -0.155312159512E+04   -0.74113E-06   -0.44595E-06  5859   0.342E-03    0.112E-03
DAV:   5    -0.155312159522E+04   -0.10212E-06   -0.24408E-06  5859   0.247E-03
  32 F= -.15531216E+04 E0= -.15531431E+04  d E =-.268856E-04
       N       E                     dE             d eps       ncg     rms          rms(c)
DAV:   1    -0.155312160598E+04   -0.10860E-04   -0.40824E-04 11298   0.282E-02    0.518E-03
DAV:   2    -0.155312160049E+04    0.54900E-05   -0.54533E-06  5796   0.384E-03    0.281E-03
DAV:   3    -0.155312159899E+04    0.14958E-05   -0.25529E-06  5789   0.336E-03    0.233E-03
DAV:   4    -0.155312159710E+04    0.18880E-05   -0.12362E-06  5796   0.217E-03    0.117E-03
DAV:   5    -0.155312159569E+04    0.14155E-05   -0.79139E-07  5796   0.151E-03
  33 F= -.15531216E+04 E0= -.15531431E+04  d E =-.469086E-06
       N       E                     dE             d eps       ncg     rms          rms(c)
DAV:   1    -0.155312160264E+04   -0.55329E-05   -0.47517E-04 11284   0.293E-02    0.381E-03
DAV:   2    -0.155312160523E+04   -0.25894E-05   -0.36568E-06  5796   0.295E-03    0.244E-03
DAV:   3    -0.155312160610E+04   -0.87579E-06   -0.15785E-06  5789   0.222E-03    0.195E-03
DAV:   4    -0.155312160746E+04   -0.13533E-05   -0.86367E-07  5796   0.156E-03    0.873E-04
DAV:   5    -0.155312160835E+04   -0.89852E-06   -0.51563E-07  5789   0.113E-03
  34 F= -.15531216E+04 E0= -.15531431E+04  d E =-.126653E-04
       N       E                     dE             d eps       ncg     rms          rms(c)
DAV:   1    -0.155312162038E+04   -0.12925E-04   -0.12773E-03 11270   0.469E-02    0.410E-03
DAV:   2    -0.155312162069E+04   -0.31463E-06   -0.73242E-06  6033   0.403E-03    0.307E-03
DAV:   3    -0.155312162078E+04   -0.85969E-07   -0.28900E-06  5810   0.247E-03    0.192E-03
DAV:   4    -0.155312162075E+04    0.32618E-07   -0.17077E-06  5817   0.213E-03    0.615E-04
DAV:   5    -0.155312162081E+04   -0.57649E-07   -0.90292E-07  5817   0.151E-03
  35 F= -.15531216E+04 E0= -.15531431E+04  d E =-.124517E-04
       N       E                     dE             d eps       ncg     rms          rms(c)
DAV:   1    -0.155312166071E+04   -0.39963E-04   -0.44986E-02 11172   0.279E-01    0.235E-02
DAV:   2    -0.155312168452E+04   -0.23806E-04   -0.38305E-04 16576   0.229E-02    0.183E-02
DAV:   3    -0.155312167618E+04    0.83382E-05   -0.23968E-05  7234   0.777E-03    0.756E-03
DAV:   4    -0.155312167601E+04    0.17106E-06   -0.11551E-05  6872   0.748E-03    0.481E-03
DAV:   5    -0.155312167445E+04    0.15621E-05   -0.40271E-06  6106   0.516E-03
  36 F= -.15531217E+04 E0= -.15531432E+04  d E =-.536399E-04
       N       E                     dE             d eps       ncg     rms          rms(c)
DAV:   1    -0.155312168079E+04   -0.47791E-05   -0.29336E-02 11186   0.225E-01    0.186E-02
DAV:   2    -0.155312169665E+04   -0.15861E-04   -0.25468E-04 16656   0.186E-02    0.145E-02
DAV:   3    -0.155312169190E+04    0.47516E-05   -0.13493E-05  6713   0.625E-03    0.787E-03
DAV:   4    -0.155312169066E+04    0.12338E-05   -0.91458E-06  6384   0.648E-03    0.414E-03
DAV:   5    -0.155312168952E+04    0.11377E-05   -0.33639E-06  5976   0.446E-03
  37 F= -.15531217E+04 E0= -.15531432E+04  d E =-.150792E-04
