generated from data-file-template.txt

4000 atoms
5 atom types

0.0 35.9 xlo xhi
0.0 35.9 ylo yhi
0.0 35.9 zlo zhi

Masses

1 58.933
2 58.690
3 51.996
4 55.847
5 54.940

Atoms # atomic

1 3 0.000 0.000 0.000 0 0 0
2 4 0.000 1.795 1.795 0 0 0
3 1 1.795 0.000 1.795 0 0 0
4 1 1.795 1.795 0.000 0 0 0
5 4 0.000 0.000 3.590 0 0 0
6 1 0.000 1.795 5.385 0 0 0
7 4 1.795 0.000 5.385 0 0 0
8 1 1.795 1.795 3.590 0 0 0
9 4 0.000 0.000 7.180 0 0 0
10 2 0.000 1.795 8.975 0 0 0
11 4 1.795 0.000 8.975 0 0 0
12 1 1.795 1.795 7.180 0 0 0
13 4 0.000 0.000 10.770 0 0 0
14 2 0.000 1.795 12.565 0 0 0
15 4 1.795 0.000 12.565 0 0 0
16 1 1.795 1.795 10.770 0 0 0
17 4 0.000 0.000 14.360 0 0 0
18 1 0.000 1.795 16.155 0 0 0
19 1 1.795 0.000 16.155 0 0 0
20 1 1.795 1.795 14.360 0 0 0
21 2 0.000 0.000 17.950 0 0 0
22 2 0.000 1.795 19.745 0 0 0
23 4 1.795 0.000 19.745 0 0 0
24 1 1.795 1.795 17.950 0 0 0
25 3 0.000 0.000 21.540 0 0 0
26 4 0.000 1.795 23.335 0 0 0
27 4 1.795 0.000 23.335 0 0 0
28 3 1.795 1.795 21.540 0 0 0
29 3 0.000 0.000 25.130 0 0 0
30 2 0.000 1.795 26.925 0 0 0
31 3 1.795 0.000 26.925 0 0 0
32 2 1.795 1.795 25.130 0 0 0
33 3 0.000 0.000 28.720 0 0 0
34 5 0.000 1.795 30.515 0 0 0
35 3 1.795 0.000 30.515 0 0 0
36 5 1.795 1.795 28.720 0 0 0
37 3 0.000 0.000 32.310 0 0 0
38 3 0.000 1.795 34.105 0 0 0
39 3 1.795 0.000 34.105 0 0 0
40 2 1.795 1.795 32.310 0 0 0
41 2 0.000 3.590 0.000 0 0 0
42 1 0.000 5.385 1.795 0 0 0
43 2 1.795 3.590 1.795 0 0 0
44 4 1.795 5.385 0.000 0 0 0
45 4 0.000 3.590 3.590 0 0 0
46 2 0.000 5.385 5.385 0 0 0
47 1 1.795 3.590 5.385 0 0 0
48 1 1.795 5.385 3.590 0 0 0
49 4 0.000 3.590 7.180 0 0 0
50 2 0.000 5.385 8.975 0 0 0
51 1 1.795 3.590 8.975 0 0 0
52 2 1.795 5.385 7.180 0 0 0
53 4 0.000 3.590 10.770 0 0 0
54 1 0.000 5.385 12.565 0 0 0
55 1 1.795 3.590 12.565 0 0 0
56 2 1.795 5.385 10.770 0 0 0
57 4 0.000 3.590 14.360 0 0 0
58 2 0.000 5.385 16.155 0 0 0
59 2 1.795 3.590 16.155 0 0 0
60 4 1.795 5.385 14.360 0 0 0
61 4 0.000 3.590 17.950 0 0 0
62 1 0.000 5.385 19.745 0 0 0
63 4 1.795 3.590 19.745 0 0 0
64 2 1.795 5.385 17.950 0 0 0
65 5 0.000 3.590 21.540 0 0 0
66 4 0.000 5.385 23.335 0 0 0
67 2 1.795 3.590 23.335 0 0 0
68 5 1.795 5.385 21.540 0 0 0
69 4 0.000 3.590 25.130 0 0 0
70 2 0.000 5.385 26.925 0 0 0
71 2 1.795 3.590 26.925 0 0 0
72 1 1.795 5.385 25.130 0 0 0
73 5 0.000 3.590 28.720 0 0 0
74 3 0.000 5.385 30.515 0 0 0
75 3 1.795 3.590 30.515 0 0 0
76 3 1.795 5.385 28.720 0 0 0
77 3 0.000 3.590 32.310 0 0 0
78 3 0.000 5.385 34.105 0 0 0
79 1 1.795 3.590 34.105 0 0 0
80 2 1.795 5.385 32.310 0 0 0
81 4 0.000 7.180 0.000 0 0 0
82 4 0.000 8.975 1.795 0 0 0
83 1 1.795 7.180 1.795 0 0 0
84 1 1.795 8.975 0.000 0 0 0
85 2 0.000 7.180 3.590 0 0 0
86 2 0.000 8.975 5.385 0 0 0
87 2 1.795 7.180 5.385 0 0 0
88 1 1.795 8.975 3.590 0 0 0
89 4 0.000 7.180 7.180 0 0 0
90 1 0.000 8.975 8.975 0 0 0
91 1 1.795 7.180 8.975 0 0 0
92 2 1.795 8.975 7.180 0 0 0
93 4 0.000 7.180 10.770 0 0 0
94 4 0.000 8.975 12.565 0 0 0
95 1 1.795 7.180 12.565 0 0 0
96 1 1.795 8.975 10.770 0 0 0
97 2 0.000 7.180 14.360 0 0 0
98 4 0.000 8.975 16.155 0 0 0
99 2 1.795 7.180 16.155 0 0 0
100 2 1.795 8.975 14.360 0 0 0
101 4 0.000 7.180 17.950 0 0 0
102 1 0.000 8.975 19.745 0 0 0
103 1 1.795 7.180 19.745 0 0 0
104 2 1.795 8.975 17.950 0 0 0
105 3 0.000 7.180 21.540 0 0 0
106 4 0.000 8.975 23.335 0 0 0
107 1 1.795 7.180 23.335 0 0 0
108 5 1.795 8.975 21.540 0 0 0
109 1 0.000 7.180 25.130 0 0 0
110 1 0.000 8.975 26.925 0 0 0
111 4 1.795 7.180 26.925 0 0 0
112 4 1.795 8.975 25.130 0 0 0
113 5 0.000 7.180 28.720 0 0 0
114 3 0.000 8.975 30.515 0 0 0
115 5 1.795 7.180 30.515 0 0 0
116 3 1.795 8.975 28.720 0 0 0
117 3 0.000 7.180 32.310 0 0 0
118 1 0.000 8.975 34.105 0 0 0
119 4 1.795 7.180 34.105 0 0 0
120 4 1.795 8.975 32.310 0 0 0
121 1 0.000 10.770 0.000 0 0 0
122 2 0.000 12.565 1.795 0 0 0
123 2 1.795 10.770 1.795 0 0 0
124 4 1.795 12.565 0.000 0 0 0
125 1 0.000 10.770 3.590 0 0 0
126 1 0.000 12.565 5.385 0 0 0
127 4 1.795 10.770 5.385 0 0 0
128 1 1.795 12.565 3.590 0 0 0
129 4 0.000 10.770 7.180 0 0 0
130 1 0.000 12.565 8.975 0 0 0
131 2 1.795 10.770 8.975 0 0 0
132 2 1.795 12.565 7.180 0 0 0
133 4 0.000 10.770 10.770 0 0 0
134 2 0.000 12.565 12.565 0 0 0
135 2 1.795 10.770 12.565 0 0 0
136 4 1.795 12.565 10.770 0 0 0
137 1 0.000 10.770 14.360 0 0 0
138 1 0.000 12.565 16.155 0 0 0
139 4 1.795 10.770 16.155 0 0 0
140 4 1.795 12.565 14.360 0 0 0
141 2 0.000 10.770 17.950 0 0 0
142 2 0.000 12.565 19.745 0 0 0
143 4 1.795 10.770 19.745 0 0 0
144 1 1.795 12.565 17.950 0 0 0
145 5 0.000 10.770 21.540 0 0 0
146 4 0.000 12.565 23.335 0 0 0
147 2 1.795 10.770 23.335 0 0 0
148 5 1.795 12.565 21.540 0 0 0
149 1 0.000 10.770 25.130 0 0 0
150 2 0.000 12.565 26.925 0 0 0
151 4 1.795 10.770 26.925 0 0 0
152 1 1.795 12.565 25.130 0 0 0
153 3 0.000 10.770 28.720 0 0 0
154 5 0.000 12.565 30.515 0 0 0
155 5 1.795 10.770 30.515 0 0 0
156 5 1.795 12.565 28.720 0 0 0
157 2 0.000 10.770 32.310 0 0 0
158 3 0.000 12.565 34.105 0 0 0
159 1 1.795 10.770 34.105 0 0 0
160 2 1.795 12.565 32.310 0 0 0
161 5 0.000 14.360 0.000 0 0 0
162 4 0.000 16.155 1.795 0 0 0
163 1 1.795 14.360 1.795 0 0 0
164 4 1.795 16.155 0.000 0 0 0
165 3 0.000 14.360 3.590 0 0 0
166 2 0.000 16.155 5.385 0 0 0
167 2 1.795 14.360 5.385 0 0 0
168 4 1.795 16.155 3.590 0 0 0
169 3 0.000 14.360 7.180 0 0 0
170 1 0.000 16.155 8.975 0 0 0
171 1 1.795 14.360 8.975 0 0 0
172 4 1.795 16.155 7.180 0 0 0
173 4 0.000 14.360 10.770 0 0 0
174 4 0.000 16.155 12.565 0 0 0
175 1 1.795 14.360 12.565 0 0 0
176 2 1.795 16.155 10.770 0 0 0
177 3 0.000 14.360 14.360 0 0 0
178 4 0.000 16.155 16.155 0 0 0
179 4 1.795 14.360 16.155 0 0 0
180 1 1.795 16.155 14.360 0 0 0
181 4 0.000 14.360 17.950 0 0 0
182 2 0.000 16.155 19.745 0 0 0
183 2 1.795 14.360 19.745 0 0 0
184 1 1.795 16.155 17.950 0 0 0
185 5 0.000 14.360 21.540 0 0 0
186 1 0.000 16.155 23.335 0 0 0
187 2 1.795 14.360 23.335 0 0 0
188 5 1.795 16.155 21.540 0 0 0
189 3 0.000 14.360 25.130 0 0 0
190 4 0.000 16.155 26.925 0 0 0
191 3 1.795 14.360 26.925 0 0 0
192 1 1.795 16.155 25.130 0 0 0
193 3 0.000 14.360 28.720 0 0 0
194 3 0.000 16.155 30.515 0 0 0
195 5 1.795 14.360 30.515 0 0 0
196 5 1.795 16.155 28.720 0 0 0
197 3 0.000 14.360 32.310 0 0 0
198 4 0.000 16.155 34.105 0 0 0
199 1 1.795 14.360 34.105 0 0 0
200 3 1.795 16.155 32.310 0 0 0
201 2 0.000 17.950 0.000 0 0 0
202 4 0.000 19.745 1.795 0 0 0
203 2 1.795 17.950 1.795 0 0 0
204 2 1.795 19.745 0.000 0 0 0
205 1 0.000 17.950 3.590 0 0 0
206 2 0.000 19.745 5.385 0 0 0
207 1 1.795 17.950 5.385 0 0 0
208 1 1.795 19.745 3.590 0 0 0
209 1 0.000 17.950 7.180 0 0 0
210 1 0.000 19.745 8.975 0 0 0
211 4 1.795 17.950 8.975 0 0 0
212 2 1.795 19.745 7.180 0 0 0
213 1 0.000 17.950 10.770 0 0 0
214 1 0.000 19.745 12.565 0 0 0
215 4 1.795 17.950 12.565 0 0 0
216 1 1.795 19.745 10.770 0 0 0
217 2 0.000 17.950 14.360 0 0 0
218 4 0.000 19.745 16.155 0 0 0
219 1 1.795 17.950 16.155 0 0 0
220 2 1.795 19.745 14.360 0 0 0
221 2 0.000 17.950 17.950 0 0 0
222 4 0.000 19.745 19.745 0 0 0
223 1 1.795 17.950 19.745 0 0 0
224 1 1.795 19.745 17.950 0 0 0
225 3 0.000 17.950 21.540 0 0 0
226 4 0.000 19.745 23.335 0 0 0
227 1 1.795 17.950 23.335 0 0 0
228 5 1.795 19.745 21.540 0 0 0
229 1 0.000 17.950 25.130 0 0 0
230 1 0.000 19.745 26.925 0 0 0
231 2 1.795 17.950 26.925 0 0 0
232 1 1.795 19.745 25.130 0 0 0
233 5 0.000 17.950 28.720 0 0 0
234 3 0.000 19.745 30.515 0 0 0
235 3 1.795 17.950 30.515 0 0 0
236 3 1.795 19.745 28.720 0 0 0
237 1 0.000 17.950 32.310 0 0 0
238 4 0.000 19.745 34.105 0 0 0
239 2 1.795 17.950 34.105 0 0 0
240 3 1.795 19.745 32.310 0 0 0
241 5 0.000 21.540 0.000 0 0 0
242 3 0.000 23.335 1.795 0 0 0
243 5 1.795 21.540 1.795 0 0 0
244 2 1.795 23.335 0.000 0 0 0
245 5 0.000 21.540 3.590 0 0 0
246 4 0.000 23.335 5.385 0 0 0
247 3 1.795 21.540 5.385 0 0 0
248 2 1.795 23.335 3.590 0 0 0
249 5 0.000 21.540 7.180 0 0 0
250 4 0.000 23.335 8.975 0 0 0
251 3 1.795 21.540 8.975 0 0 0
252 2 1.795 23.335 7.180 0 0 0
253 5 0.000 21.540 10.770 0 0 0
254 4 0.000 23.335 12.565 0 0 0
255 5 1.795 21.540 12.565 0 0 0
256 1 1.795 23.335 10.770 0 0 0
257 3 0.000 21.540 14.360 0 0 0
258 4 0.000 23.335 16.155 0 0 0
259 5 1.795 21.540 16.155 0 0 0
260 3 1.795 23.335 14.360 0 0 0
261 5 0.000 21.540 17.950 0 0 0
262 1 0.000 23.335 19.745 0 0 0
263 3 1.795 21.540 19.745 0 0 0
264 1 1.795 23.335 17.950 0 0 0
265 5 0.000 21.540 21.540 0 0 0
266 1 0.000 23.335 23.335 0 0 0
267 3 1.795 21.540 23.335 0 0 0
268 5 1.795 23.335 21.540 0 0 0
269 5 0.000 21.540 25.130 0 0 0
270 4 0.000 23.335 26.925 0 0 0
271 3 1.795 21.540 26.925 0 0 0
272 4 1.795 23.335 25.130 0 0 0
273 3 0.000 21.540 28.720 0 0 0
274 5 0.000 23.335 30.515 0 0 0
275 5 1.795 21.540 30.515 0 0 0
276 5 1.795 23.335 28.720 0 0 0
277 3 0.000 21.540 32.310 0 0 0
278 1 0.000 23.335 34.105 0 0 0
279 5 1.795 21.540 34.105 0 0 0
280 3 1.795 23.335 32.310 0 0 0
281 3 0.000 25.130 0.000 0 0 0
282 4 0.000 26.925 1.795 0 0 0
283 2 1.795 25.130 1.795 0 0 0
284 3 1.795 26.925 0.000 0 0 0
285 1 0.000 25.130 3.590 0 0 0
286 1 0.000 26.925 5.385 0 0 0
287 1 1.795 25.130 5.385 0 0 0
288 1 1.795 26.925 3.590 0 0 0
289 4 0.000 25.130 7.180 0 0 0
290 3 0.000 26.925 8.975 0 0 0
291 2 1.795 25.130 8.975 0 0 0
292 1 1.795 26.925 7.180 0 0 0
293 2 0.000 25.130 10.770 0 0 0
294 3 0.000 26.925 12.565 0 0 0
295 2 1.795 25.130 12.565 0 0 0
296 2 1.795 26.925 10.770 0 0 0
297 3 0.000 25.130 14.360 0 0 0
298 3 0.000 26.925 16.155 0 0 0
299 4 1.795 25.130 16.155 0 0 0
300 3 1.795 26.925 14.360 0 0 0
301 2 0.000 25.130 17.950 0 0 0
302 3 0.000 26.925 19.745 0 0 0
303 1 1.795 25.130 19.745 0 0 0
304 2 1.795 26.925 17.950 0 0 0
305 5 0.000 25.130 21.540 0 0 0
306 3 0.000 26.925 23.335 0 0 0
307 4 1.795 25.130 23.335 0 0 0
308 3 1.795 26.925 21.540 0 0 0
309 1 0.000 25.130 25.130 0 0 0
310 2 0.000 26.925 26.925 0 0 0
311 2 1.795 25.130 26.925 0 0 0
312 1 1.795 26.925 25.130 0 0 0
313 3 0.000 25.130 28.720 0 0 0
314 3 0.000 26.925 30.515 0 0 0
315 5 1.795 25.130 30.515 0 0 0
316 5 1.795 26.925 28.720 0 0 0
317 2 0.000 25.130 32.310 0 0 0
318 3 0.000 26.925 34.105 0 0 0
319 2 1.795 25.130 34.105 0 0 0
320 5 1.795 26.925 32.310 0 0 0
321 3 0.000 28.720 0.000 0 0 0
322 5 0.000 30.515 1.795 0 0 0
323 5 1.795 28.720 1.795 0 0 0
324 5 1.795 30.515 0.000 0 0 0
325 5 0.000 28.720 3.590 0 0 0
326 5 0.000 30.515 5.385 0 0 0
327 5 1.795 28.720 5.385 0 0 0
328 5 1.795 30.515 3.590 0 0 0
329 3 0.000 28.720 7.180 0 0 0
330 3 0.000 30.515 8.975 0 0 0
331 3 1.795 28.720 8.975 0 0 0
332 5 1.795 30.515 7.180 0 0 0
333 5 0.000 28.720 10.770 0 0 0
334 5 0.000 30.515 12.565 0 0 0
335 5 1.795 28.720 12.565 0 0 0
336 5 1.795 30.515 10.770 0 0 0
337 5 0.000 28.720 14.360 0 0 0
338 5 0.000 30.515 16.155 0 0 0
339 3 1.795 28.720 16.155 0 0 0
340 5 1.795 30.515 14.360 0 0 0
341 5 0.000 28.720 17.950 0 0 0
342 5 0.000 30.515 19.745 0 0 0
343 5 1.795 28.720 19.745 0 0 0
344 5 1.795 30.515 17.950 0 0 0
345 5 0.000 28.720 21.540 0 0 0
346 5 0.000 30.515 23.335 0 0 0
347 5 1.795 28.720 23.335 0 0 0
348 5 1.795 30.515 21.540 0 0 0
349 5 0.000 28.720 25.130 0 0 0
350 5 0.000 30.515 26.925 0 0 0
351 5 1.795 28.720 26.925 0 0 0
352 5 1.795 30.515 25.130 0 0 0
353 5 0.000 28.720 28.720 0 0 0
354 5 0.000 30.515 30.515 0 0 0
355 5 1.795 28.720 30.515 0 0 0
356 3 1.795 30.515 28.720 0 0 0
357 5 0.000 28.720 32.310 0 0 0
358 3 0.000 30.515 34.105 0 0 0
359 5 1.795 28.720 34.105 0 0 0
360 5 1.795 30.515 32.310 0 0 0
361 3 0.000 32.310 0.000 0 0 0
362 3 0.000 34.105 1.795 0 0 0
363 3 1.795 32.310 1.795 0 0 0
364 3 1.795 34.105 0.000 0 0 0
365 3 0.000 32.310 3.590 0 0 0
366 2 0.000 34.105 5.385 0 0 0
367 2 1.795 32.310 5.385 0 0 0
368 3 1.795 34.105 3.590 0 0 0
369 3 0.000 32.310 7.180 0 0 0
370 2 0.000 34.105 8.975 0 0 0
371 4 1.795 32.310 8.975 0 0 0
372 2 1.795 34.105 7.180 0 0 0
373 3 0.000 32.310 10.770 0 0 0
374 2 0.000 34.105 12.565 0 0 0
375 2 1.795 32.310 12.565 0 0 0
376 2 1.795 34.105 10.770 0 0 0
377 5 0.000 32.310 14.360 0 0 0
378 4 0.000 34.105 16.155 0 0 0
379 1 1.795 32.310 16.155 0 0 0
380 4 1.795 34.105 14.360 0 0 0
381 1 0.000 32.310 17.950 0 0 0
382 4 0.000 34.105 19.745 0 0 0
383 2 1.795 32.310 19.745 0 0 0
384 1 1.795 34.105 17.950 0 0 0
385 5 0.000 32.310 21.540 0 0 0
386 3 0.000 34.105 23.335 0 0 0
387 3 1.795 32.310 23.335 0 0 0
388 5 1.795 34.105 21.540 0 0 0
389 2 0.000 32.310 25.130 0 0 0
390 3 0.000 34.105 26.925 0 0 0
391 3 1.795 32.310 26.925 0 0 0
392 3 1.795 34.105 25.130 0 0 0
393 3 0.000 32.310 28.720 0 0 0
394 5 0.000 34.105 30.515 0 0 0
395 5 1.795 32.310 30.515 0 0 0
396 5 1.795 34.105 28.720 0 0 0
397 3 0.000 32.310 32.310 0 0 0
398 3 0.000 34.105 34.105 0 0 0
399 3 1.795 32.310 34.105 0 0 0
400 3 1.795 34.105 32.310 0 0 0
401 4 3.590 0.000 0.000 0 0 0
402 1 3.590 1.795 1.795 0 0 0
403 1 5.385 0.000 1.795 0 0 0
404 2 5.385 1.795 0.000 0 0 0
405 4 3.590 0.000 3.590 0 0 0
406 2 3.590 1.795 5.385 0 0 0
407 1 5.385 0.000 5.385 0 0 0
408 2 5.385 1.795 3.590 0 0 0
409 1 3.590 0.000 7.180 0 0 0
410 2 3.590 1.795 8.975 0 0 0
411 2 5.385 0.000 8.975 0 0 0
412 4 5.385 1.795 7.180 0 0 0
413 2 3.590 0.000 10.770 0 0 0
414 1 3.590 1.795 12.565 0 0 0
415 2 5.385 0.000 12.565 0 0 0
416 1 5.385 1.795 10.770 0 0 0
417 3 3.590 0.000 14.360 0 0 0
418 4 3.590 1.795 16.155 0 0 0
419 1 5.385 0.000 16.155 0 0 0
420 2 5.385 1.795 14.360 0 0 0
421 4 3.590 0.000 17.950 0 0 0
422 1 3.590 1.795 19.745 0 0 0
423 1 5.385 0.000 19.745 0 0 0
424 1 5.385 1.795 17.950 0 0 0
425 5 3.590 0.000 21.540 0 0 0
426 1 3.590 1.795 23.335 0 0 0
427 3 5.385 0.000 23.335 0 0 0
428 5 5.385 1.795 21.540 0 0 0
429 2 3.590 0.000 25.130 0 0 0
430 4 3.590 1.795 26.925 0 0 0
431 1 5.385 0.000 26.925 0 0 0
432 1 5.385 1.795 25.130 0 0 0
433 5 3.590 0.000 28.720 0 0 0
434 3 3.590 1.795 30.515 0 0 0
435 3 5.385 0.000 30.515 0 0 0
436 5 5.385 1.795 28.720 0 0 0
437 3 3.590 0.000 32.310 0 0 0
438 2 3.590 1.795 34.105 0 0 0
439 3 5.385 0.000 34.105 0 0 0
440 2 5.385 1.795 32.310 0 0 0
441 4 3.590 3.590 0.000 0 0 0
442 2 3.590 5.385 1.795 0 0 0
443 1 5.385 3.590 1.795 0 0 0
444 1 5.385 5.385 0.000 0 0 0
445 4 3.590 3.590 3.590 0 0 0
446 1 3.590 5.385 5.385 0 0 0
447 1 5.385 3.590 5.385 0 0 0
448 2 5.385 5.385 3.590 0 0 0
449 4 3.590 3.590 7.180 0 0 0
450 1 3.590 5.385 8.975 0 0 0
451 2 5.385 3.590 8.975 0 0 0
452 2 5.385 5.385 7.180 0 0 0
453 4 3.590 3.590 10.770 0 0 0
454 2 3.590 5.385 12.565 0 0 0
455 1 5.385 3.590 12.565 0 0 0
456 4 5.385 5.385 10.770 0 0 0
457 2 3.590 3.590 14.360 0 0 0
458 1 3.590 5.385 16.155 0 0 0
459 1 5.385 3.590 16.155 0 0 0
460 4 5.385 5.385 14.360 0 0 0
461 2 3.590 3.590 17.950 0 0 0
462 2 3.590 5.385 19.745 0 0 0
463 4 5.385 3.590 19.745 0 0 0
464 1 5.385 5.385 17.950 0 0 0
465 3 3.590 3.590 21.540 0 0 0
466 4 3.590 5.385 23.335 0 0 0
467 4 5.385 3.590 23.335 0 0 0
468 3 5.385 5.385 21.540 0 0 0
469 1 3.590 3.590 25.130 0 0 0
470 1 3.590 5.385 26.925 0 0 0
471 4 5.385 3.590 26.925 0 0 0
472 2 5.385 5.385 25.130 0 0 0
473 3 3.590 3.590 28.720 0 0 0
474 3 3.590 5.385 30.515 0 0 0
475 5 5.385 3.590 30.515 0 0 0
476 5 5.385 5.385 28.720 0 0 0
477 4 3.590 3.590 32.310 0 0 0
478 1 3.590 5.385 34.105 0 0 0
479 1 5.385 3.590 34.105 0 0 0
480 4 5.385 5.385 32.310 0 0 0
481 4 3.590 7.180 0.000 0 0 0
482 4 3.590 8.975 1.795 0 0 0
483 2 5.385 7.180 1.795 0 0 0
484 1 5.385 8.975 0.000 0 0 0
485 1 3.590 7.180 3.590 0 0 0
486 4 3.590 8.975 5.385 0 0 0
487 4 5.385 7.180 5.385 0 0 0
488 1 5.385 8.975 3.590 0 0 0
489 1 3.590 7.180 7.180 0 0 0
490 4 3.590 8.975 8.975 0 0 0
491 1 5.385 7.180 8.975 0 0 0
492 2 5.385 8.975 7.180 0 0 0
493 2 3.590 7.180 10.770 0 0 0
494 4 3.590 8.975 12.565 0 0 0
495 1 5.385 7.180 12.565 0 0 0
496 4 5.385 8.975 10.770 0 0 0
497 2 3.590 7.180 14.360 0 0 0
498 1 3.590 8.975 16.155 0 0 0
499 4 5.385 7.180 16.155 0 0 0
500 1 5.385 8.975 14.360 0 0 0
501 4 3.590 7.180 17.950 0 0 0
502 1 3.590 8.975 19.745 0 0 0
503 4 5.385 7.180 19.745 0 0 0
504 2 5.385 8.975 17.950 0 0 0
505 5 3.590 7.180 21.540 0 0 0
506 1 3.590 8.975 23.335 0 0 0
507 2 5.385 7.180 23.335 0 0 0
508 5 5.385 8.975 21.540 0 0 0
509 2 3.590 7.180 25.130 0 0 0
510 1 3.590 8.975 26.925 0 0 0
511 4 5.385 7.180 26.925 0 0 0
512 2 5.385 8.975 25.130 0 0 0
513 3 3.590 7.180 28.720 0 0 0
514 5 3.590 8.975 30.515 0 0 0
515 5 5.385 7.180 30.515 0 0 0
516 5 5.385 8.975 28.720 0 0 0
517 1 3.590 7.180 32.310 0 0 0
518 1 3.590 8.975 34.105 0 0 0
519 2 5.385 7.180 34.105 0 0 0
520 1 5.385 8.975 32.310 0 0 0
521 2 3.590 10.770 0.000 0 0 0
522 1 3.590 12.565 1.795 0 0 0
523 1 5.385 10.770 1.795 0 0 0
524 2 5.385 12.565 0.000 0 0 0
525 2 3.590 10.770 3.590 0 0 0
526 4 3.590 12.565 5.385 0 0 0
527 2 5.385 10.770 5.385 0 0 0
528 2 5.385 12.565 3.590 0 0 0
529 1 3.590 10.770 7.180 0 0 0
530 4 3.590 12.565 8.975 0 0 0
531 1 5.385 10.770 8.975 0 0 0
532 2 5.385 12.565 7.180 0 0 0
533 2 3.590 10.770 10.770 0 0 0
534 1 3.590 12.565 12.565 0 0 0
535 1 5.385 10.770 12.565 0 0 0
536 1 5.385 12.565 10.770 0 0 0
537 2 3.590 10.770 14.360 0 0 0
538 2 3.590 12.565 16.155 0 0 0
539 4 5.385 10.770 16.155 0 0 0
540 4 5.385 12.565 14.360 0 0 0
541 1 3.590 10.770 17.950 0 0 0
542 4 3.590 12.565 19.745 0 0 0
543 2 5.385 10.770 19.745 0 0 0
544 1 5.385 12.565 17.950 0 0 0
545 3 3.590 10.770 21.540 0 0 0
546 4 3.590 12.565 23.335 0 0 0
547 4 5.385 10.770 23.335 0 0 0
548 5 5.385 12.565 21.540 0 0 0
549 2 3.590 10.770 25.130 0 0 0
550 4 3.590 12.565 26.925 0 0 0
551 2 5.385 10.770 26.925 0 0 0
552 1 5.385 12.565 25.130 0 0 0
553 5 3.590 10.770 28.720 0 0 0
554 3 3.590 12.565 30.515 0 0 0
555 5 5.385 10.770 30.515 0 0 0
556 5 5.385 12.565 28.720 0 0 0
557 4 3.590 10.770 32.310 0 0 0
558 2 3.590 12.565 34.105 0 0 0
559 4 5.385 10.770 34.105 0 0 0
560 1 5.385 12.565 32.310 0 0 0
561 3 3.590 14.360 0.000 0 0 0
562 1 3.590 16.155 1.795 0 0 0
563 2 5.385 14.360 1.795 0 0 0
564 3 5.385 16.155 0.000 0 0 0
565 2 3.590 14.360 3.590 0 0 0
566 4 3.590 16.155 5.385 0 0 0
567 4 5.385 14.360 5.385 0 0 0
568 1 5.385 16.155 3.590 0 0 0
569 2 3.590 14.360 7.180 0 0 0
570 4 3.590 16.155 8.975 0 0 0
571 4 5.385 14.360 8.975 0 0 0
572 4 5.385 16.155 7.180 0 0 0
573 4 3.590 14.360 10.770 0 0 0
574 2 3.590 16.155 12.565 0 0 0
575 1 5.385 14.360 12.565 0 0 0
576 1 5.385 16.155 10.770 0 0 0
577 2 3.590 14.360 14.360 0 0 0
578 3 3.590 16.155 16.155 0 0 0
579 2 5.385 14.360 16.155 0 0 0
580 3 5.385 16.155 14.360 0 0 0
581 4 3.590 14.360 17.950 0 0 0
582 2 3.590 16.155 19.745 0 0 0
583 2 5.385 14.360 19.745 0 0 0
584 4 5.385 16.155 17.950 0 0 0
585 5 3.590 14.360 21.540 0 0 0
586 3 3.590 16.155 23.335 0 0 0
587 2 5.385 14.360 23.335 0 0 0
588 5 5.385 16.155 21.540 0 0 0
589 4 3.590 14.360 25.130 0 0 0
590 1 3.590 16.155 26.925 0 0 0
591 1 5.385 14.360 26.925 0 0 0
592 4 5.385 16.155 25.130 0 0 0
593 3 3.590 14.360 28.720 0 0 0
594 5 3.590 16.155 30.515 0 0 0
595 5 5.385 14.360 30.515 0 0 0
596 3 5.385 16.155 28.720 0 0 0
597 2 3.590 14.360 32.310 0 0 0
598 3 3.590 16.155 34.105 0 0 0
599 4 5.385 14.360 34.105 0 0 0
600 2 5.385 16.155 32.310 0 0 0
601 1 3.590 17.950 0.000 0 0 0
602 1 3.590 19.745 1.795 0 0 0
603 4 5.385 17.950 1.795 0 0 0
604 2 5.385 19.745 0.000 0 0 0
605 4 3.590 17.950 3.590 0 0 0
606 4 3.590 19.745 5.385 0 0 0
607 2 5.385 17.950 5.385 0 0 0
608 4 5.385 19.745 3.590 0 0 0
609 1 3.590 17.950 7.180 0 0 0
610 2 3.590 19.745 8.975 0 0 0
611 1 5.385 17.950 8.975 0 0 0
612 4 5.385 19.745 7.180 0 0 0
613 2 3.590 17.950 10.770 0 0 0
614 2 3.590 19.745 12.565 0 0 0
615 2 5.385 17.950 12.565 0 0 0
616 4 5.385 19.745 10.770 0 0 0
617 4 3.590 17.950 14.360 0 0 0
618 1 3.590 19.745 16.155 0 0 0
619 2 5.385 17.950 16.155 0 0 0
620 2 5.385 19.745 14.360 0 0 0
621 2 3.590 17.950 17.950 0 0 0
622 4 3.590 19.745 19.745 0 0 0
623 2 5.385 17.950 19.745 0 0 0
624 2 5.385 19.745 17.950 0 0 0
625 5 3.590 17.950 21.540 0 0 0
626 4 3.590 19.745 23.335 0 0 0
627 2 5.385 17.950 23.335 0 0 0
628 3 5.385 19.745 21.540 0 0 0
629 1 3.590 17.950 25.130 0 0 0
630 4 3.590 19.745 26.925 0 0 0
631 4 5.385 17.950 26.925 0 0 0
632 2 5.385 19.745 25.130 0 0 0
633 5 3.590 17.950 28.720 0 0 0
634 3 3.590 19.745 30.515 0 0 0
635 3 5.385 17.950 30.515 0 0 0
636 3 5.385 19.745 28.720 0 0 0
637 2 3.590 17.950 32.310 0 0 0
638 3 3.590 19.745 34.105 0 0 0
639 1 5.385 17.950 34.105 0 0 0
640 3 5.385 19.745 32.310 0 0 0
641 3 3.590 21.540 0.000 0 0 0
642 4 3.590 23.335 1.795 0 0 0
643 5 5.385 21.540 1.795 0 0 0
644 4 5.385 23.335 0.000 0 0 0
645 5 3.590 21.540 3.590 0 0 0
646 4 3.590 23.335 5.385 0 0 0
647 5 5.385 21.540 5.385 0 0 0
648 1 5.385 23.335 3.590 0 0 0
649 5 3.590 21.540 7.180 0 0 0
650 1 3.590 23.335 8.975 0 0 0
651 5 5.385 21.540 8.975 0 0 0
652 2 5.385 23.335 7.180 0 0 0
653 5 3.590 21.540 10.770 0 0 0
654 2 3.590 23.335 12.565 0 0 0
655 5 5.385 21.540 12.565 0 0 0
656 2 5.385 23.335 10.770 0 0 0
657 5 3.590 21.540 14.360 0 0 0
658 4 3.590 23.335 16.155 0 0 0
659 3 5.385 21.540 16.155 0 0 0
660 3 5.385 23.335 14.360 0 0 0
661 4 3.590 21.540 17.950 0 0 0
662 3 3.590 23.335 19.745 0 0 0
663 5 5.385 21.540 19.745 0 0 0
664 1 5.385 23.335 17.950 0 0 0
665 3 3.590 21.540 21.540 0 0 0
666 2 3.590 23.335 23.335 0 0 0
667 5 5.385 21.540 23.335 0 0 0
668 3 5.385 23.335 21.540 0 0 0
669 5 3.590 21.540 25.130 0 0 0
670 3 3.590 23.335 26.925 0 0 0
671 5 5.385 21.540 26.925 0 0 0
672 1 5.385 23.335 25.130 0 0 0
673 5 3.590 21.540 28.720 0 0 0
674 5 3.590 23.335 30.515 0 0 0
675 5 5.385 21.540 30.515 0 0 0
676 3 5.385 23.335 28.720 0 0 0
677 3 3.590 21.540 32.310 0 0 0
678 4 3.590 23.335 34.105 0 0 0
679 5 5.385 21.540 34.105 0 0 0
680 1 5.385 23.335 32.310 0 0 0
681 2 3.590 25.130 0.000 0 0 0
682 4 3.590 26.925 1.795 0 0 0
683 2 5.385 25.130 1.795 0 0 0
684 2 5.385 26.925 0.000 0 0 0
685 2 3.590 25.130 3.590 0 0 0
686 2 3.590 26.925 5.385 0 0 0
687 1 5.385 25.130 5.385 0 0 0
688 4 5.385 26.925 3.590 0 0 0
689 1 3.590 25.130 7.180 0 0 0
690 4 3.590 26.925 8.975 0 0 0
691 1 5.385 25.130 8.975 0 0 0
692 4 5.385 26.925 7.180 0 0 0
693 1 3.590 25.130 10.770 0 0 0
694 4 3.590 26.925 12.565 0 0 0
695 4 5.385 25.130 12.565 0 0 0
696 2 5.385 26.925 10.770 0 0 0
697 2 3.590 25.130 14.360 0 0 0
698 4 3.590 26.925 16.155 0 0 0
699 4 5.385 25.130 16.155 0 0 0
700 1 5.385 26.925 14.360 0 0 0
701 1 3.590 25.130 17.950 0 0 0
702 4 3.590 26.925 19.745 0 0 0
703 2 5.385 25.130 19.745 0 0 0
704 4 5.385 26.925 17.950 0 0 0
705 5 3.590 25.130 21.540 0 0 0
706 4 3.590 26.925 23.335 0 0 0
707 2 5.385 25.130 23.335 0 0 0
708 5 5.385 26.925 21.540 0 0 0
709 2 3.590 25.130 25.130 0 0 0
710 3 3.590 26.925 26.925 0 0 0
711 4 5.385 25.130 26.925 0 0 0
712 2 5.385 26.925 25.130 0 0 0
713 5 3.590 25.130 28.720 0 0 0
714 5 3.590 26.925 30.515 0 0 0
715 3 5.385 25.130 30.515 0 0 0
716 5 5.385 26.925 28.720 0 0 0
717 4 3.590 25.130 32.310 0 0 0
718 4 3.590 26.925 34.105 0 0 0
719 1 5.385 25.130 34.105 0 0 0
720 3 5.385 26.925 32.310 0 0 0
721 5 3.590 28.720 0.000 0 0 0
722 3 3.590 30.515 1.795 0 0 0
723 5 5.385 28.720 1.795 0 0 0
724 5 5.385 30.515 0.000 0 0 0
725 5 3.590 28.720 3.590 0 0 0
726 5 3.590 30.515 5.385 0 0 0
727 3 5.385 28.720 5.385 0 0 0
728 5 5.385 30.515 3.590 0 0 0
729 5 3.590 28.720 7.180 0 0 0
730 3 3.590 30.515 8.975 0 0 0
731 5 5.385 28.720 8.975 0 0 0
732 3 5.385 30.515 7.180 0 0 0
733 5 3.590 28.720 10.770 0 0 0
734 3 3.590 30.515 12.565 0 0 0
735 5 5.385 28.720 12.565 0 0 0
736 5 5.385 30.515 10.770 0 0 0
737 5 3.590 28.720 14.360 0 0 0
738 5 3.590 30.515 16.155 0 0 0
739 5 5.385 28.720 16.155 0 0 0
740 5 5.385 30.515 14.360 0 0 0
741 3 3.590 28.720 17.950 0 0 0
742 5 3.590 30.515 19.745 0 0 0
743 3 5.385 28.720 19.745 0 0 0
744 5 5.385 30.515 17.950 0 0 0
745 5 3.590 28.720 21.540 0 0 0
746 5 3.590 30.515 23.335 0 0 0
747 3 5.385 28.720 23.335 0 0 0
748 3 5.385 30.515 21.540 0 0 0
749 5 3.590 28.720 25.130 0 0 0
750 5 3.590 30.515 26.925 0 0 0
751 5 5.385 28.720 26.925 0 0 0
752 5 5.385 30.515 25.130 0 0 0
753 5 3.590 28.720 28.720 0 0 0
754 3 3.590 30.515 30.515 0 0 0
755 3 5.385 28.720 30.515 0 0 0
756 5 5.385 30.515 28.720 0 0 0
757 3 3.590 28.720 32.310 0 0 0
758 5 3.590 30.515 34.105 0 0 0
759 5 5.385 28.720 34.105 0 0 0
760 5 5.385 30.515 32.310 0 0 0
761 3 3.590 32.310 0.000 0 0 0
762 1 3.590 34.105 1.795 0 0 0
763 2 5.385 32.310 1.795 0 0 0
764 4 5.385 34.105 0.000 0 0 0
765 4 3.590 32.310 3.590 0 0 0
766 1 3.590 34.105 5.385 0 0 0
767 1 5.385 32.310 5.385 0 0 0
768 2 5.385 34.105 3.590 0 0 0
769 4 3.590 32.310 7.180 0 0 0
770 2 3.590 34.105 8.975 0 0 0
771 2 5.385 32.310 8.975 0 0 0
772 1 5.385 34.105 7.180 0 0 0
773 1 3.590 32.310 10.770 0 0 0
774 4 3.590 34.105 12.565 0 0 0
775 1 5.385 32.310 12.565 0 0 0
776 4 5.385 34.105 10.770 0 0 0
777 1 3.590 32.310 14.360 0 0 0
778 2 3.590 34.105 16.155 0 0 0
779 1 5.385 32.310 16.155 0 0 0
780 1 5.385 34.105 14.360 0 0 0
781 2 3.590 32.310 17.950 0 0 0
782 3 3.590 34.105 19.745 0 0 0
783 3 5.385 32.310 19.745 0 0 0
784 2 5.385 34.105 17.950 0 0 0
785 3 3.590 32.310 21.540 0 0 0
786 2 3.590 34.105 23.335 0 0 0
787 3 5.385 32.310 23.335 0 0 0
788 3 5.385 34.105 21.540 0 0 0
789 2 3.590 32.310 25.130 0 0 0
790 3 3.590 34.105 26.925 0 0 0
791 2 5.385 32.310 26.925 0 0 0
792 2 5.385 34.105 25.130 0 0 0
793 3 3.590 32.310 28.720 0 0 0
794 5 3.590 34.105 30.515 0 0 0
795 3 5.385 32.310 30.515 0 0 0
796 5 5.385 34.105 28.720 0 0 0
797 3 3.590 32.310 32.310 0 0 0
798 3 3.590 34.105 34.105 0 0 0
799 3 5.385 32.310 34.105 0 0 0
800 3 5.385 34.105 32.310 0 0 0
801 1 7.180 0.000 0.000 0 0 0
802 4 7.180 1.795 1.795 0 0 0
803 1 8.975 0.000 1.795 0 0 0
804 1 8.975 1.795 0.000 0 0 0
805 2 7.180 0.000 3.590 0 0 0
806 4 7.180 1.795 5.385 0 0 0
807 4 8.975 0.000 5.385 0 0 0
808 1 8.975 1.795 3.590 0 0 0
809 1 7.180 0.000 7.180 0 0 0
810 2 7.180 1.795 8.975 0 0 0
811 4 8.975 0.000 8.975 0 0 0
812 2 8.975 1.795 7.180 0 0 0
813 4 7.180 0.000 10.770 0 0 0
814 2 7.180 1.795 12.565 0 0 0
815 1 8.975 0.000 12.565 0 0 0
816 2 8.975 1.795 10.770 0 0 0
817 4 7.180 0.000 14.360 0 0 0
818 4 7.180 1.795 16.155 0 0 0
819 2 8.975 0.000 16.155 0 0 0
820 2 8.975 1.795 14.360 0 0 0
821 2 7.180 0.000 17.950 0 0 0
822 2 7.180 1.795 19.745 0 0 0
823 1 8.975 0.000 19.745 0 0 0
824 1 8.975 1.795 17.950 0 0 0
825 3 7.180 0.000 21.540 0 0 0
826 2 7.180 1.795 23.335 0 0 0
827 4 8.975 0.000 23.335 0 0 0
828 3 8.975 1.795 21.540 0 0 0
829 2 7.180 0.000 25.130 0 0 0
830 4 7.180 1.795 26.925 0 0 0
831 2 8.975 0.000 26.925 0 0 0
832 1 8.975 1.795 25.130 0 0 0
833 5 7.180 0.000 28.720 0 0 0
834 5 7.180 1.795 30.515 0 0 0
835 5 8.975 0.000 30.515 0 0 0
836 5 8.975 1.795 28.720 0 0 0
837 3 7.180 0.000 32.310 0 0 0
838 1 7.180 1.795 34.105 0 0 0
839 3 8.975 0.000 34.105 0 0 0
840 2 8.975 1.795 32.310 0 0 0
841 2 7.180 3.590 0.000 0 0 0
842 4 7.180 5.385 1.795 0 0 0
843 1 8.975 3.590 1.795 0 0 0
844 4 8.975 5.385 0.000 0 0 0
845 2 7.180 3.590 3.590 0 0 0
846 4 7.180 5.385 5.385 0 0 0
847 1 8.975 3.590 5.385 0 0 0
848 1 8.975 5.385 3.590 0 0 0
849 1 7.180 3.590 7.180 0 0 0
850 1 7.180 5.385 8.975 0 0 0
851 4 8.975 3.590 8.975 0 0 0
852 1 8.975 5.385 7.180 0 0 0
853 1 7.180 3.590 10.770 0 0 0
854 1 7.180 5.385 12.565 0 0 0
855 4 8.975 3.590 12.565 0 0 0
856 2 8.975 5.385 10.770 0 0 0
857 1 7.180 3.590 14.360 0 0 0
858 4 7.180 5.385 16.155 0 0 0
859 1 8.975 3.590 16.155 0 0 0
860 2 8.975 5.385 14.360 0 0 0
861 1 7.180 3.590 17.950 0 0 0
862 2 7.180 5.385 19.745 0 0 0
863 4 8.975 3.590 19.745 0 0 0
864 2 8.975 5.385 17.950 0 0 0
865 3 7.180 3.590 21.540 0 0 0
866 1 7.180 5.385 23.335 0 0 0
867 4 8.975 3.590 23.335 0 0 0
868 5 8.975 5.385 21.540 0 0 0
869 2 7.180 3.590 25.130 0 0 0
870 1 7.180 5.385 26.925 0 0 0
871 1 8.975 3.590 26.925 0 0 0
872 4 8.975 5.385 25.130 0 0 0
873 5 7.180 3.590 28.720 0 0 0
874 5 7.180 5.385 30.515 0 0 0
875 5 8.975 3.590 30.515 0 0 0
876 3 8.975 5.385 28.720 0 0 0
877 4 7.180 3.590 32.310 0 0 0
878 1 7.180 5.385 34.105 0 0 0
879 1 8.975 3.590 34.105 0 0 0
880 4 8.975 5.385 32.310 0 0 0
881 1 7.180 7.180 0.000 0 0 0
882 4 7.180 8.975 1.795 0 0 0
883 4 8.975 7.180 1.795 0 0 0
884 2 8.975 8.975 0.000 0 0 0
885 2 7.180 7.180 3.590 0 0 0
886 1 7.180 8.975 5.385 0 0 0
887 2 8.975 7.180 5.385 0 0 0
888 2 8.975 8.975 3.590 0 0 0
889 4 7.180 7.180 7.180 0 0 0
890 1 7.180 8.975 8.975 0 0 0
891 2 8.975 7.180 8.975 0 0 0
892 1 8.975 8.975 7.180 0 0 0
893 4 7.180 7.180 10.770 0 0 0
894 2 7.180 8.975 12.565 0 0 0
895 2 8.975 7.180 12.565 0 0 0
896 4 8.975 8.975 10.770 0 0 0
897 4 7.180 7.180 14.360 0 0 0
898 1 7.180 8.975 16.155 0 0 0
899 1 8.975 7.180 16.155 0 0 0
900 1 8.975 8.975 14.360 0 0 0
901 2 7.180 7.180 17.950 0 0 0
902 4 7.180 8.975 19.745 0 0 0
903 4 8.975 7.180 19.745 0 0 0
904 1 8.975 8.975 17.950 0 0 0
905 5 7.180 7.180 21.540 0 0 0
906 4 7.180 8.975 23.335 0 0 0
907 1 8.975 7.180 23.335 0 0 0
908 1 8.975 8.975 21.540 0 0 0
909 1 7.180 7.180 25.130 0 0 0
910 4 7.180 8.975 26.925 0 0 0
911 2 8.975 7.180 26.925 0 0 0
912 1 8.975 8.975 25.130 0 0 0
913 5 7.180 7.180 28.720 0 0 0
914 3 7.180 8.975 30.515 0 0 0
915 5 8.975 7.180 30.515 0 0 0
916 3 8.975 8.975 28.720 0 0 0
917 4 7.180 7.180 32.310 0 0 0
918 2 7.180 8.975 34.105 0 0 0
919 4 8.975 7.180 34.105 0 0 0
920 2 8.975 8.975 32.310 0 0 0
921 1 7.180 10.770 0.000 0 0 0
922 4 7.180 12.565 1.795 0 0 0
923 1 8.975 10.770 1.795 0 0 0
924 1 8.975 12.565 0.000 0 0 0
925 4 7.180 10.770 3.590 0 0 0
926 1 7.180 12.565 5.385 0 0 0
927 2 8.975 10.770 5.385 0 0 0
928 1 8.975 12.565 3.590 0 0 0
929 4 7.180 10.770 7.180 0 0 0
930 1 7.180 12.565 8.975 0 0 0
931 1 8.975 10.770 8.975 0 0 0
932 1 8.975 12.565 7.180 0 0 0
933 4 7.180 10.770 10.770 0 0 0
934 2 7.180 12.565 12.565 0 0 0
935 1 8.975 10.770 12.565 0 0 0
936 2 8.975 12.565 10.770 0 0 0
937 4 7.180 10.770 14.360 0 0 0
938 4 7.180 12.565 16.155 0 0 0
939 4 8.975 10.770 16.155 0 0 0
940 1 8.975 12.565 14.360 0 0 0
941 2 7.180 10.770 17.950 0 0 0
942 1 7.180 12.565 19.745 0 0 0
943 1 8.975 10.770 19.745 0 0 0
944 2 8.975 12.565 17.950 0 0 0
945 5 7.180 10.770 21.540 0 0 0
946 1 7.180 12.565 23.335 0 0 0
947 4 8.975 10.770 23.335 0 0 0
948 3 8.975 12.565 21.540 0 0 0
949 2 7.180 10.770 25.130 0 0 0
950 4 7.180 12.565 26.925 0 0 0
951 2 8.975 10.770 26.925 0 0 0
952 1 8.975 12.565 25.130 0 0 0
953 3 7.180 10.770 28.720 0 0 0
954 5 7.180 12.565 30.515 0 0 0
955 3 8.975 10.770 30.515 0 0 0