generated from data-file-template.txt

4000 atoms
5 atom types

0.0 35.9 xlo xhi
0.0 35.9 ylo yhi
0.0 35.9 zlo zhi

Masses

1 58.933
2 58.690
3 51.996
4 55.847
5 54.940

Atoms # atomic

1 3 0.000 0.000 0.000 0 0 0
2 2 0.000 1.795 1.795 0 0 0
3 1 1.795 0.000 1.795 0 0 0
4 4 1.795 1.795 0.000 0 0 0
5 4 0.000 0.000 3.590 0 0 0
6 1 0.000 1.795 5.385 0 0 0
7 1 1.795 0.000 5.385 0 0 0
8 4 1.795 1.795 3.590 0 0 0
9 5 0.000 0.000 7.180 0 0 0
10 2 0.000 1.795 8.975 0 0 0
11 1 1.795 0.000 8.975 0 0 0
12 2 1.795 1.795 7.180 0 0 0
13 4 0.000 0.000 10.770 0 0 0
14 4 0.000 1.795 12.565 0 0 0
15 4 1.795 0.000 12.565 0 0 0
16 1 1.795 1.795 10.770 0 0 0
17 5 0.000 0.000 14.360 0 0 0
18 4 0.000 1.795 16.155 0 0 0
19 2 1.795 0.000 16.155 0 0 0
20 2 1.795 1.795 14.360 0 0 0
21 4 0.000 0.000 17.950 0 0 0
22 1 0.000 1.795 19.745 0 0 0
23 4 1.795 0.000 19.745 0 0 0
24 1 1.795 1.795 17.950 0 0 0
25 5 0.000 0.000 21.540 0 0 0
26 1 0.000 1.795 23.335 0 0 0
27 3 1.795 0.000 23.335 0 0 0
28 5 1.795 1.795 21.540 0 0 0
29 3 0.000 0.000 25.130 0 0 0
30 3 0.000 1.795 26.925 0 0 0
31 4 1.795 0.000 26.925 0 0 0
32 2 1.795 1.795 25.130 0 0 0
33 3 0.000 0.000 28.720 0 0 0
34 3 0.000 1.795 30.515 0 0 0
35 5 1.795 0.000 30.515 0 0 0
36 3 1.795 1.795 28.720 0 0 0
37 3 0.000 0.000 32.310 0 0 0
38 1 0.000 1.795 34.105 0 0 0
39 1 1.795 0.000 34.105 0 0 0
40 4 1.795 1.795 32.310 0 0 0
41 2 0.000 3.590 0.000 0 0 0
42 4 0.000 5.385 1.795 0 0 0
43 1 1.795 3.590 1.795 0 0 0
44 4 1.795 5.385 0.000 0 0 0
45 2 0.000 3.590 3.590 0 0 0
46 4 0.000 5.385 5.385 0 0 0
47 1 1.795 3.590 5.385 0 0 0
48 4 1.795 5.385 3.590 0 0 0
49 4 0.000 3.590 7.180 0 0 0
50 4 0.000 5.385 8.975 0 0 0
51 2 1.795 3.590 8.975 0 0 0
52 2 1.795 5.385 7.180 0 0 0
53 2 0.000 3.590 10.770 0 0 0
54 4 0.000 5.385 12.565 0 0 0
55 1 1.795 3.590 12.565 0 0 0
56 2 1.795 5.385 10.770 0 0 0
57 1 0.000 3.590 14.360 0 0 0
58 4 0.000 5.385 16.155 0 0 0
59 1 1.795 3.590 16.155 0 0 0
60 2 1.795 5.385 14.360 0 0 0
61 4 0.000 3.590 17.950 0 0 0
62 1 0.000 5.385 19.745 0 0 0
63 2 1.795 3.590 19.745 0 0 0
64 1 1.795 5.385 17.950 0 0 0
65 3 0.000 3.590 21.540 0 0 0
66 3 0.000 5.385 23.335 0 0 0
67 4 1.795 3.590 23.335 0 0 0
68 3 1.795 5.385 21.540 0 0 0
69 4 0.000 3.590 25.130 0 0 0
70 4 0.000 5.385 26.925 0 0 0
71 2 1.795 3.590 26.925 0 0 0
72 2 1.795 5.385 25.130 0 0 0
73 5 0.000 3.590 28.720 0 0 0
74 3 0.000 5.385 30.515 0 0 0
75 5 1.795 3.590 30.515 0 0 0
76 3 1.795 5.385 28.720 0 0 0
77 1 0.000 3.590 32.310 0 0 0
78 3 0.000 5.385 34.105 0 0 0
79 2 1.795 3.590 34.105 0 0 0
80 2 1.795 5.385 32.310 0 0 0
81 3 0.000 7.180 0.000 0 0 0
82 4 0.000 8.975 1.795 0 0 0
83 2 1.795 7.180 1.795 0 0 0
84 2 1.795 8.975 0.000 0 0 0
85 4 0.000 7.180 3.590 0 0 0
86 4 0.000 8.975 5.385 0 0 0
87 1 1.795 7.180 5.385 0 0 0
88 1 1.795 8.975 3.590 0 0 0
89 1 0.000 7.180 7.180 0 0 0
90 4 0.000 8.975 8.975 0 0 0
91 1 1.795 7.180 8.975 0 0 0
92 2 1.795 8.975 7.180 0 0 0
93 2 0.000 7.180 10.770 0 0 0
94 4 0.000 8.975 12.565 0 0 0
95 2 1.795 7.180 12.565 0 0 0
96 1 1.795 8.975 10.770 0 0 0
97 3 0.000 7.180 14.360 0 0 0
98 1 0.000 8.975 16.155 0 0 0
99 4 1.795 7.180 16.155 0 0 0
100 4 1.795 8.975 14.360 0 0 0
101 4 0.000 7.180 17.950 0 0 0
102 2 0.000 8.975 19.745 0 0 0
103 2 1.795 7.180 19.745 0 0 0
104 1 1.795 8.975 17.950 0 0 0
105 5 0.000 7.180 21.540 0 0 0
106 2 0.000 8.975 23.335 0 0 0
107 1 1.795 7.180 23.335 0 0 0
108 5 1.795 8.975 21.540 0 0 0
109 4 0.000 7.180 25.130 0 0 0
110 4 0.000 8.975 26.925 0 0 0
111 2 1.795 7.180 26.925 0 0 0
112 1 1.795 8.975 25.130 0 0 0
113 5 0.000 7.180 28.720 0 0 0
114 3 0.000 8.975 30.515 0 0 0
115 3 1.795 7.180 30.515 0 0 0
116 5 1.795 8.975 28.720 0 0 0
117 3 0.000 7.180 32.310 0 0 0
118 3 0.000 8.975 34.105 0 0 0
119 1 1.795 7.180 34.105 0 0 0
120 2 1.795 8.975 32.310 0 0 0
121 1 0.000 10.770 0.000 0 0 0
122 4 0.000 12.565 1.795 0 0 0
123 2 1.795 10.770 1.795 0 0 0
124 1 1.795 12.565 0.000 0 0 0
125 2 0.000 10.770 3.590 0 0 0
126 1 0.000 12.565 5.385 0 0 0
127 1 1.795 10.770 5.385 0 0 0
128 2 1.795 12.565 3.590 0 0 0
129 2 0.000 10.770 7.180 0 0 0
130 4 0.000 12.565 8.975 0 0 0
131 2 1.795 10.770 8.975 0 0 0
132 2 1.795 12.565 7.180 0 0 0
133 2 0.000 10.770 10.770 0 0 0
134 2 0.000 12.565 12.565 0 0 0
135 1 1.795 10.770 12.565 0 0 0
136 1 1.795 12.565 10.770 0 0 0
137 1 0.000 10.770 14.360 0 0 0
138 2 0.000 12.565 16.155 0 0 0
139 4 1.795 10.770 16.155 0 0 0
140 1 1.795 12.565 14.360 0 0 0
141 2 0.000 10.770 17.950 0 0 0
142 3 0.000 12.565 19.745 0 0 0
143 1 1.795 10.770 19.745 0 0 0
144 2 1.795 12.565 17.950 0 0 0
145 5 0.000 10.770 21.540 0 0 0
146 4 0.000 12.565 23.335 0 0 0
147 1 1.795 10.770 23.335 0 0 0
148 5 1.795 12.565 21.540 0 0 0
149 4 0.000 10.770 25.130 0 0 0
150 3 0.000 12.565 26.925 0 0 0
151 1 1.795 10.770 26.925 0 0 0
152 2 1.795 12.565 25.130 0 0 0
153 3 0.000 10.770 28.720 0 0 0
154 5 0.000 12.565 30.515 0 0 0
155 5 1.795 10.770 30.515 0 0 0
156 5 1.795 12.565 28.720 0 0 0
157 1 0.000 10.770 32.310 0 0 0
158 3 0.000 12.565 34.105 0 0 0
159 2 1.795 10.770 34.105 0 0 0
160 2 1.795 12.565 32.310 0 0 0
161 3 0.000 14.360 0.000 0 0 0
162 4 0.000 16.155 1.795 0 0 0
163 4 1.795 14.360 1.795 0 0 0
164 2 1.795 16.155 0.000 0 0 0
165 4 0.000 14.360 3.590 0 0 0
166 4 0.000 16.155 5.385 0 0 0
167 1 1.795 14.360 5.385 0 0 0
168 1 1.795 16.155 3.590 0 0 0
169 4 0.000 14.360 7.180 0 0 0
170 4 0.000 16.155 8.975 0 0 0
171 4 1.795 14.360 8.975 0 0 0
172 4 1.795 16.155 7.180 0 0 0
173 1 0.000 14.360 10.770 0 0 0
174 1 0.000 16.155 12.565 0 0 0
175 4 1.795 14.360 12.565 0 0 0
176 4 1.795 16.155 10.770 0 0 0
177 4 0.000 14.360 14.360 0 0 0
178 1 0.000 16.155 16.155 0 0 0
179 1 1.795 14.360 16.155 0 0 0
180 1 1.795 16.155 14.360 0 0 0
181 4 0.000 14.360 17.950 0 0 0
182 1 0.000 16.155 19.745 0 0 0
183 2 1.795 14.360 19.745 0 0 0
184 4 1.795 16.155 17.950 0 0 0
185 5 0.000 14.360 21.540 0 0 0
186 1 0.000 16.155 23.335 0 0 0
187 2 1.795 14.360 23.335 0 0 0
188 3 1.795 16.155 21.540 0 0 0
189 3 0.000 14.360 25.130 0 0 0
190 4 0.000 16.155 26.925 0 0 0
191 3 1.795 14.360 26.925 0 0 0
192 1 1.795 16.155 25.130 0 0 0
193 5 0.000 14.360 28.720 0 0 0
194 5 0.000 16.155 30.515 0 0 0
195 3 1.795 14.360 30.515 0 0 0
196 3 1.795 16.155 28.720 0 0 0
197 4 0.000 14.360 32.310 0 0 0
198 3 0.000 16.155 34.105 0 0 0
199 1 1.795 14.360 34.105 0 0 0
200 3 1.795 16.155 32.310 0 0 0
201 3 0.000 17.950 0.000 0 0 0
202 1 0.000 19.745 1.795 0 0 0
203 2 1.795 17.950 1.795 0 0 0
204 4 1.795 19.745 0.000 0 0 0
205 2 0.000 17.950 3.590 0 0 0
206 4 0.000 19.745 5.385 0 0 0
207 1 1.795 17.950 5.385 0 0 0
208 2 1.795 19.745 3.590 0 0 0
209 2 0.000 17.950 7.180 0 0 0
210 1 0.000 19.745 8.975 0 0 0
211 1 1.795 17.950 8.975 0 0 0
212 2 1.795 19.745 7.180 0 0 0
213 4 0.000 17.950 10.770 0 0 0
214 3 0.000 19.745 12.565 0 0 0
215 2 1.795 17.950 12.565 0 0 0
216 2 1.795 19.745 10.770 0 0 0
217 3 0.000 17.950 14.360 0 0 0
218 3 0.000 19.745 16.155 0 0 0
219 1 1.795 17.950 16.155 0 0 0
220 2 1.795 19.745 14.360 0 0 0
221 2 0.000 17.950 17.950 0 0 0
222 4 0.000 19.745 19.745 0 0 0
223 4 1.795 17.950 19.745 0 0 0
224 4 1.795 19.745 17.950 0 0 0
225 5 0.000 17.950 21.540 0 0 0
226 1 0.000 19.745 23.335 0 0 0
227 4 1.795 17.950 23.335 0 0 0
228 5 1.795 19.745 21.540 0 0 0
229 1 0.000 17.950 25.130 0 0 0
230 4 0.000 19.745 26.925 0 0 0
231 1 1.795 17.950 26.925 0 0 0
232 2 1.795 19.745 25.130 0 0 0
233 5 0.000 17.950 28.720 0 0 0
234 3 0.000 19.745 30.515 0 0 0
235 3 1.795 17.950 30.515 0 0 0
236 5 1.795 19.745 28.720 0 0 0
237 1 0.000 17.950 32.310 0 0 0
238 4 0.000 19.745 34.105 0 0 0
239 2 1.795 17.950 34.105 0 0 0
240 3 1.795 19.745 32.310 0 0 0
241 5 0.000 21.540 0.000 0 0 0
242 4 0.000 23.335 1.795 0 0 0
243 5 1.795 21.540 1.795 0 0 0
244 1 1.795 23.335 0.000 0 0 0
245 3 0.000 21.540 3.590 0 0 0
246 3 0.000 23.335 5.385 0 0 0
247 3 1.795 21.540 5.385 0 0 0
248 1 1.795 23.335 3.590 0 0 0
249 3 0.000 21.540 7.180 0 0 0
250 4 0.000 23.335 8.975 0 0 0
251 5 1.795 21.540 8.975 0 0 0
252 2 1.795 23.335 7.180 0 0 0
253 5 0.000 21.540 10.770 0 0 0
254 3 0.000 23.335 12.565 0 0 0
255 5 1.795 21.540 12.565 0 0 0
256 1 1.795 23.335 10.770 0 0 0
257 5 0.000 21.540 14.360 0 0 0
258 4 0.000 23.335 16.155 0 0 0
259 5 1.795 21.540 16.155 0 0 0
260 3 1.795 23.335 14.360 0 0 0
261 5 0.000 21.540 17.950 0 0 0
262 4 0.000 23.335 19.745 0 0 0
263 5 1.795 21.540 19.745 0 0 0
264 2 1.795 23.335 17.950 0 0 0
265 3 0.000 21.540 21.540 0 0 0
266 4 0.000 23.335 23.335 0 0 0
267 5 1.795 21.540 23.335 0 0 0
268 5 1.795 23.335 21.540 0 0 0
269 5 0.000 21.540 25.130 0 0 0
270 3 0.000 23.335 26.925 0 0 0
271 5 1.795 21.540 26.925 0 0 0
272 1 1.795 23.335 25.130 0 0 0
273 5 0.000 21.540 28.720 0 0 0
274 3 0.000 23.335 30.515 0 0 0
275 5 1.795 21.540 30.515 0 0 0
276 5 1.795 23.335 28.720 0 0 0
277 5 0.000 21.540 32.310 0 0 0
278 5 0.000 23.335 34.105 0 0 0
279 3 1.795 21.540 34.105 0 0 0
280 2 1.795 23.335 32.310 0 0 0
281 2 0.000 25.130 0.000 0 0 0
282 1 0.000 26.925 1.795 0 0 0
283 4 1.795 25.130 1.795 0 0 0
284 3 1.795 26.925 0.000 0 0 0
285 2 0.000 25.130 3.590 0 0 0
286 4 0.000 26.925 5.385 0 0 0
287 1 1.795 25.130 5.385 0 0 0
288 2 1.795 26.925 3.590 0 0 0
289 4 0.000 25.130 7.180 0 0 0
290 1 0.000 26.925 8.975 0 0 0
291 1 1.795 25.130 8.975 0 0 0
292 2 1.795 26.925 7.180 0 0 0
293 2 0.000 25.130 10.770 0 0 0
294 3 0.000 26.925 12.565 0 0 0
295 2 1.795 25.130 12.565 0 0 0
296 4 1.795 26.925 10.770 0 0 0
297 2 0.000 25.130 14.360 0 0 0
298 3 0.000 26.925 16.155 0 0 0
299 1 1.795 25.130 16.155 0 0 0
300 3 1.795 26.925 14.360 0 0 0
301 2 0.000 25.130 17.950 0 0 0
302 1 0.000 26.925 19.745 0 0 0
303 1 1.795 25.130 19.745 0 0 0
304 1 1.795 26.925 17.950 0 0 0
305 5 0.000 25.130 21.540 0 0 0
306 4 0.000 26.925 23.335 0 0 0
307 2 1.795 25.130 23.335 0 0 0
308 5 1.795 26.925 21.540 0 0 0
309 2 0.000 25.130 25.130 0 0 0
310 1 0.000 26.925 26.925 0 0 0
311 2 1.795 25.130 26.925 0 0 0
312 2 1.795 26.925 25.130 0 0 0
313 5 0.000 25.130 28.720 0 0 0
314 5 0.000 26.925 30.515 0 0 0
315 5 1.795 25.130 30.515 0 0 0
316 5 1.795 26.925 28.720 0 0 0
317 4 0.000 25.130 32.310 0 0 0
318 1 0.000 26.925 34.105 0 0 0
319 2 1.795 25.130 34.105 0 0 0
320 4 1.795 26.925 32.310 0 0 0
321 3 0.000 28.720 0.000 0 0 0
322 3 0.000 30.515 1.795 0 0 0
323 5 1.795 28.720 1.795 0 0 0
324 5 1.795 30.515 0.000 0 0 0
325 5 0.000 28.720 3.590 0 0 0
326 3 0.000 30.515 5.385 0 0 0
327 3 1.795 28.720 5.385 0 0 0
328 5 1.795 30.515 3.590 0 0 0
329 5 0.000 28.720 7.180 0 0 0
330 5 0.000 30.515 8.975 0 0 0
331 3 1.795 28.720 8.975 0 0 0
332 5 1.795 30.515 7.180 0 0 0
333 5 0.000 28.720 10.770 0 0 0
334 5 0.000 30.515 12.565 0 0 0
335 5 1.795 28.720 12.565 0 0 0
336 5 1.795 30.515 10.770 0 0 0
337 5 0.000 28.720 14.360 0 0 0
338 5 0.000 30.515 16.155 0 0 0
339 5 1.795 28.720 16.155 0 0 0
340 3 1.795 30.515 14.360 0 0 0
341 3 0.000 28.720 17.950 0 0 0
342 5 0.000 30.515 19.745 0 0 0
343 3 1.795 28.720 19.745 0 0 0
344 5 1.795 30.515 17.950 0 0 0
345 3 0.000 28.720 21.540 0 0 0
346 3 0.000 30.515 23.335 0 0 0
347 5 1.795 28.720 23.335 0 0 0
348 5 1.795 30.515 21.540 0 0 0
349 3 0.000 28.720 25.130 0 0 0
350 5 0.000 30.515 26.925 0 0 0
351 5 1.795 28.720 26.925 0 0 0
352 5 1.795 30.515 25.130 0 0 0
353 3 0.000 28.720 28.720 0 0 0
354 5 0.000 30.515 30.515 0 0 0
355 3 1.795 28.720 30.515 0 0 0
356 5 1.795 30.515 28.720 0 0 0
357 3 0.000 28.720 32.310 0 0 0
358 5 0.000 30.515 34.105 0 0 0
359 3 1.795 28.720 34.105 0 0 0
360 5 1.795 30.515 32.310 0 0 0
361 5 0.000 32.310 0.000 0 0 0
362 2 0.000 34.105 1.795 0 0 0
363 1 1.795 32.310 1.795 0 0 0
364 3 1.795 34.105 0.000 0 0 0
365 3 0.000 32.310 3.590 0 0 0
366 4 0.000 34.105 5.385 0 0 0
367 4 1.795 32.310 5.385 0 0 0
368 2 1.795 34.105 3.590 0 0 0
369 4 0.000 32.310 7.180 0 0 0
370 1 0.000 34.105 8.975 0 0 0
371 2 1.795 32.310 8.975 0 0 0
372 1 1.795 34.105 7.180 0 0 0
373 4 0.000 32.310 10.770 0 0 0
374 1 0.000 34.105 12.565 0 0 0
375 4 1.795 32.310 12.565 0 0 0
376 2 1.795 34.105 10.770 0 0 0
377 4 0.000 32.310 14.360 0 0 0
378 3 0.000 34.105 16.155 0 0 0
379 3 1.795 32.310 16.155 0 0 0
380 2 1.795 34.105 14.360 0 0 0
381 2 0.000 32.310 17.950 0 0 0
382 2 0.000 34.105 19.745 0 0 0
383 3 1.795 32.310 19.745 0 0 0
384 3 1.795 34.105 17.950 0 0 0
385 3 0.000 32.310 21.540 0 0 0
386 3 0.000 34.105 23.335 0 0 0
387 3 1.795 32.310 23.335 0 0 0
388 5 1.795 34.105 21.540 0 0 0
389 3 0.000 32.310 25.130 0 0 0
390 3 0.000 34.105 26.925 0 0 0
391 2 1.795 32.310 26.925 0 0 0
392 2 1.795 34.105 25.130 0 0 0
393 5 0.000 32.310 28.720 0 0 0
394 5 0.000 34.105 30.515 0 0 0
395 5 1.795 32.310 30.515 0 0 0
396 3 1.795 34.105 28.720 0 0 0
397 2 0.000 32.310 32.310 0 0 0
398 3 0.000 34.105 34.105 0 0 0
399 3 1.795 32.310 34.105 0 0 0
400 3 1.795 34.105 32.310 0 0 0
401 4 3.590 0.000 0.000 0 0 0
402 4 3.590 1.795 1.795 0 0 0
403 4 5.385 0.000 1.795 0 0 0
404 4 5.385 1.795 0.000 0 0 0
405 1 3.590 0.000 3.590 0 0 0
406 2 3.590 1.795 5.385 0 0 0
407 4 5.385 0.000 5.385 0 0 0
408 2 5.385 1.795 3.590 0 0 0
409 4 3.590 0.000 7.180 0 0 0
410 2 3.590 1.795 8.975 0 0 0
411 1 5.385 0.000 8.975 0 0 0
412 1 5.385 1.795 7.180 0 0 0
413 1 3.590 0.000 10.770 0 0 0
414 1 3.590 1.795 12.565 0 0 0
415 4 5.385 0.000 12.565 0 0 0
416 4 5.385 1.795 10.770 0 0 0
417 3 3.590 0.000 14.360 0 0 0
418 4 3.590 1.795 16.155 0 0 0
419 4 5.385 0.000 16.155 0 0 0
420 4 5.385 1.795 14.360 0 0 0
421 2 3.590 0.000 17.950 0 0 0
422 4 3.590 1.795 19.745 0 0 0
423 4 5.385 0.000 19.745 0 0 0
424 1 5.385 1.795 17.950 0 0 0
425 5 3.590 0.000 21.540 0 0 0
426 4 3.590 1.795 23.335 0 0 0
427 2 5.385 0.000 23.335 0 0 0
428 5 5.385 1.795 21.540 0 0 0
429 4 3.590 0.000 25.130 0 0 0
430 2 3.590 1.795 26.925 0 0 0
431 2 5.385 0.000 26.925 0 0 0
432 2 5.385 1.795 25.130 0 0 0
433 5 3.590 0.000 28.720 0 0 0
434 5 3.590 1.795 30.515 0 0 0
435 3 5.385 0.000 30.515 0 0 0
436 5 5.385 1.795 28.720 0 0 0
437 1 3.590 0.000 32.310 0 0 0
438 2 3.590 1.795 34.105 0 0 0
439 3 5.385 0.000 34.105 0 0 0
440 2 5.385 1.795 32.310 0 0 0
441 1 3.590 3.590 0.000 0 0 0
442 2 3.590 5.385 1.795 0 0 0
443 1 5.385 3.590 1.795 0 0 0
444 4 5.385 5.385 0.000 0 0 0
445 1 3.590 3.590 3.590 0 0 0
446 2 3.590 5.385 5.385 0 0 0
447 1 5.385 3.590 5.385 0 0 0
448 4 5.385 5.385 3.590 0 0 0
449 4 3.590 3.590 7.180 0 0 0
450 1 3.590 5.385 8.975 0 0 0
451 1 5.385 3.590 8.975 0 0 0
452 2 5.385 5.385 7.180 0 0 0
453 2 3.590 3.590 10.770 0 0 0
454 4 3.590 5.385 12.565 0 0 0
455 2 5.385 3.590 12.565 0 0 0
456 2 5.385 5.385 10.770 0 0 0
457 2 3.590 3.590 14.360 0 0 0
458 4 3.590 5.385 16.155 0 0 0
459 1 5.385 3.590 16.155 0 0 0
460 4 5.385 5.385 14.360 0 0 0
461 1 3.590 3.590 17.950 0 0 0
462 4 3.590 5.385 19.745 0 0 0
463 4 5.385 3.590 19.745 0 0 0
464 2 5.385 5.385 17.950 0 0 0
465 3 3.590 3.590 21.540 0 0 0
466 4 3.590 5.385 23.335 0 0 0
467 1 5.385 3.590 23.335 0 0 0
468 5 5.385 5.385 21.540 0 0 0
469 2 3.590 3.590 25.130 0 0 0
470 1 3.590 5.385 26.925 0 0 0
471 4 5.385 3.590 26.925 0 0 0
472 1 5.385 5.385 25.130 0 0 0
473 5 3.590 3.590 28.720 0 0 0
474 5 3.590 5.385 30.515 0 0 0
475 3 5.385 3.590 30.515 0 0 0
476 3 5.385 5.385 28.720 0 0 0
477 3 3.590 3.590 32.310 0 0 0
478 2 3.590 5.385 34.105 0 0 0
479 2 5.385 3.590 34.105 0 0 0
480 1 5.385 5.385 32.310 0 0 0
481 4 3.590 7.180 0.000 0 0 0
482 1 3.590 8.975 1.795 0 0 0
483 1 5.385 7.180 1.795 0 0 0
484 1 5.385 8.975 0.000 0 0 0
485 1 3.590 7.180 3.590 0 0 0
486 1 3.590 8.975 5.385 0 0 0
487 4 5.385 7.180 5.385 0 0 0
488 2 5.385 8.975 3.590 0 0 0
489 4 3.590 7.180 7.180 0 0 0
490 1 3.590 8.975 8.975 0 0 0
491 2 5.385 7.180 8.975 0 0 0
492 1 5.385 8.975 7.180 0 0 0
493 2 3.590 7.180 10.770 0 0 0
494 1 3.590 8.975 12.565 0 0 0
495 1 5.385 7.180 12.565 0 0 0
496 4 5.385 8.975 10.770 0 0 0
497 1 3.590 7.180 14.360 0 0 0
498 2 3.590 8.975 16.155 0 0 0
499 4 5.385 7.180 16.155 0 0 0
500 4 5.385 8.975 14.360 0 0 0
501 1 3.590 7.180 17.950 0 0 0
502 4 3.590 8.975 19.745 0 0 0
503 1 5.385 7.180 19.745 0 0 0
504 2 5.385 8.975 17.950 0 0 0
505 5 3.590 7.180 21.540 0 0 0
506 4 3.590 8.975 23.335 0 0 0
507 2 5.385 7.180 23.335 0 0 0
508 3 5.385 8.975 21.540 0 0 0
509 4 3.590 7.180 25.130 0 0 0
510 2 3.590 8.975 26.925 0 0 0
511 4 5.385 7.180 26.925 0 0 0
512 1 5.385 8.975 25.130 0 0 0
513 5 3.590 7.180 28.720 0 0 0
514 3 3.590 8.975 30.515 0 0 0
515 5 5.385 7.180 30.515 0 0 0
516 3 5.385 8.975 28.720 0 0 0
517 2 3.590 7.180 32.310 0 0 0
518 4 3.590 8.975 34.105 0 0 0
519 1 5.385 7.180 34.105 0 0 0
520 2 5.385 8.975 32.310 0 0 0
521 1 3.590 10.770 0.000 0 0 0
522 1 3.590 12.565 1.795 0 0 0
523 2 5.385 10.770 1.795 0 0 0
524 4 5.385 12.565 0.000 0 0 0
525 4 3.590 10.770 3.590 0 0 0
526 4 3.590 12.565 5.385 0 0 0
527 1 5.385 10.770 5.385 0 0 0
528 1 5.385 12.565 3.590 0 0 0
529 4 3.590 10.770 7.180 0 0 0
530 4 3.590 12.565 8.975 0 0 0
531 2 5.385 10.770 8.975 0 0 0
532 2 5.385 12.565 7.180 0 0 0
533 4 3.590 10.770 10.770 0 0 0
534 1 3.590 12.565 12.565 0 0 0
535 1 5.385 10.770 12.565 0 0 0
536 2 5.385 12.565 10.770 0 0 0
537 1 3.590 10.770 14.360 0 0 0
538 4 3.590 12.565 16.155 0 0 0
539 1 5.385 10.770 16.155 0 0 0
540 1 5.385 12.565 14.360 0 0 0
541 2 3.590 10.770 17.950 0 0 0
542 4 3.590 12.565 19.745 0 0 0
543 1 5.385 10.770 19.745 0 0 0
544 2 5.385 12.565 17.950 0 0 0
545 5 3.590 10.770 21.540 0 0 0
546 2 3.590 12.565 23.335 0 0 0
547 4 5.385 10.770 23.335 0 0 0
548 5 5.385 12.565 21.540 0 0 0
549 4 3.590 10.770 25.130 0 0 0
550 2 3.590 12.565 26.925 0 0 0
551 1 5.385 10.770 26.925 0 0 0
552 1 5.385 12.565 25.130 0 0 0
553 5 3.590 10.770 28.720 0 0 0
554 3 3.590 12.565 30.515 0 0 0
555 3 5.385 10.770 30.515 0 0 0
556 3 5.385 12.565 28.720 0 0 0
557 1 3.590 10.770 32.310 0 0 0
558 4 3.590 12.565 34.105 0 0 0
559 4 5.385 10.770 34.105 0 0 0
560 1 5.385 12.565 32.310 0 0 0
561 3 3.590 14.360 0.000 0 0 0
562 2 3.590 16.155 1.795 0 0 0
563 1 5.385 14.360 1.795 0 0 0
564 4 5.385 16.155 0.000 0 0 0
565 4 3.590 14.360 3.590 0 0 0
566 4 3.590 16.155 5.385 0 0 0
567 4 5.385 14.360 5.385 0 0 0
568 4 5.385 16.155 3.590 0 0 0
569 1 3.590 14.360 7.180 0 0 0
570 1 3.590 16.155 8.975 0 0 0
571 2 5.385 14.360 8.975 0 0 0
572 1 5.385 16.155 7.180 0 0 0
573 4 3.590 14.360 10.770 0 0 0
574 1 3.590 16.155 12.565 0 0 0
575 1 5.385 14.360 12.565 0 0 0
576 4 5.385 16.155 10.770 0 0 0
577 4 3.590 14.360 14.360 0 0 0
578 4 3.590 16.155 16.155 0 0 0
579 4 5.385 14.360 16.155 0 0 0
580 1 5.385 16.155 14.360 0 0 0
581 1 3.590 14.360 17.950 0 0 0
582 1 3.590 16.155 19.745 0 0 0
583 4 5.385 14.360 19.745 0 0 0
584 4 5.385 16.155 17.950 0 0 0
585 5 3.590 14.360 21.540 0 0 0
586 4 3.590 16.155 23.335 0 0 0
587 1 5.385 14.360 23.335 0 0 0
588 5 5.385 16.155 21.540 0 0 0
589 4 3.590 14.360 25.130 0 0 0
590 2 3.590 16.155 26.925 0 0 0
591 4 5.385 14.360 26.925 0 0 0
592 4 5.385 16.155 25.130 0 0 0
593 5 3.590 14.360 28.720 0 0 0
594 5 3.590 16.155 30.515 0 0 0
595 5 5.385 14.360 30.515 0 0 0
596 5 5.385 16.155 28.720 0 0 0
597 3 3.590 14.360 32.310 0 0 0
598 5 3.590 16.155 34.105 0 0 0
599 4 5.385 14.360 34.105 0 0 0
600 2 5.385 16.155 32.310 0 0 0
601 2 3.590 17.950 0.000 0 0 0
602 1 3.590 19.745 1.795 0 0 0
603 2 5.385 17.950 1.795 0 0 0
604 3 5.385 19.745 0.000 0 0 0
605 1 3.590 17.950 3.590 0 0 0
606 4 3.590 19.745 5.385 0 0 0
607 2 5.385 17.950 5.385 0 0 0
608 1 5.385 19.745 3.590 0 0 0
609 2 3.590 17.950 7.180 0 0 0
610 1 3.590 19.745 8.975 0 0 0
611 1 5.385 17.950 8.975 0 0 0
612 1 5.385 19.745 7.180 0 0 0
613 2 3.590 17.950 10.770 0 0 0
614 4 3.590 19.745 12.565 0 0 0
615 2 5.385 17.950 12.565 0 0 0
616 4 5.385 19.745 10.770 0 0 0
617 1 3.590 17.950 14.360 0 0 0
618 4 3.590 19.745 16.155 0 0 0
619 1 5.385 17.950 16.155 0 0 0
620 3 5.385 19.745 14.360 0 0 0
621 2 3.590 17.950 17.950 0 0 0
622 3 3.590 19.745 19.745 0 0 0
623 1 5.385 17.950 19.745 0 0 0
624 2 5.385 19.745 17.950 0 0 0
625 3 3.590 17.950 21.540 0 0 0
626 2 3.590 19.745 23.335 0 0 0
627 1 5.385 17.950 23.335 0 0 0
628 5 5.385 19.745 21.540 0 0 0
629 1 3.590 17.950 25.130 0 0 0
630 1 3.590 19.745 26.925 0 0 0
631 2 5.385 17.950 26.925 0 0 0
632 4 5.385 19.745 25.130 0 0 0
633 3 3.590 17.950 28.720 0 0 0
634 3 3.590 19.745 30.515 0 0 0
635 5 5.385 17.950 30.515 0 0 0
636 5 5.385 19.745 28.720 0 0 0
637 2 3.590 17.950 32.310 0 0 0
638 4 3.590 19.745 34.105 0 0 0
639 4 5.385 17.950 34.105 0 0 0
640 1 5.385 19.745 32.310 0 0 0
641 5 3.590 21.540 0.000 0 0 0
642 4 3.590 23.335 1.795 0 0 0
643 5 5.385 21.540 1.795 0 0 0
644 1 5.385 23.335 0.000 0 0 0
645 5 3.590 21.540 3.590 0 0 0
646 2 3.590 23.335 5.385 0 0 0
647 3 5.385 21.540 5.385 0 0 0
648 2 5.385 23.335 3.590 0 0 0
649 5 3.590 21.540 7.180 0 0 0
650 4 3.590 23.335 8.975 0 0 0
651 5 5.385 21.540 8.975 0 0 0
652 4 5.385 23.335 7.180 0 0 0
653 3 3.590 21.540 10.770 0 0 0
654 1 3.590 23.335 12.565 0 0 0
655 5 5.385 21.540 12.565 0 0 0
656 1 5.385 23.335 10.770 0 0 0
657 3 3.590 21.540 14.360 0 0 0
658 4 3.590 23.335 16.155 0 0 0
659 3 5.385 21.540 16.155 0 0 0
660 4 5.385 23.335 14.360 0 0 0
661 3 3.590 21.540 17.950 0 0 0
662 3 3.590 23.335 19.745 0 0 0
663 5 5.385 21.540 19.745 0 0 0
664 1 5.385 23.335 17.950 0 0 0
665 3 3.590 21.540 21.540 0 0 0
666 5 3.590 23.335 23.335 0 0 0
667 3 5.385 21.540 23.335 0 0 0
668 5 5.385 23.335 21.540 0 0 0
669 5 3.590 21.540 25.130 0 0 0
670 4 3.590 23.335 26.925 0 0 0
671 3 5.385 21.540 26.925 0 0 0
672 4 5.385 23.335 25.130 0 0 0
673 5 3.590 21.540 28.720 0 0 0
674 5 3.590 23.335 30.515 0 0 0
675 5 5.385 21.540 30.515 0 0 0
676 5 5.385 23.335 28.720 0 0 0
677 5 3.590 21.540 32.310 0 0 0
678 4 3.590 23.335 34.105 0 0 0
679 3 5.385 21.540 34.105 0 0 0
680 2 5.385 23.335 32.310 0 0 0
681 1 3.590 25.130 0.000 0 0 0
682 1 3.590 26.925 1.795 0 0 0
683 2 5.385 25.130 1.795 0 0 0
684 1 5.385 26.925 0.000 0 0 0
685 1 3.590 25.130 3.590 0 0 0
686 1 3.590 26.925 5.385 0 0 0
687 1 5.385 25.130 5.385 0 0 0
688 1 5.385 26.925 3.590 0 0 0
689 4 3.590 25.130 7.180 0 0 0
690 2 3.590 26.925 8.975 0 0 0
691 1 5.385 25.130 8.975 0 0 0
692 4 5.385 26.925 7.180 0 0 0
693 4 3.590 25.130 10.770 0 0 0
694 2 3.590 26.925 12.565 0 0 0
695 1 5.385 25.130 12.565 0 0 0
696 4 5.385 26.925 10.770 0 0 0
697 1 3.590 25.130 14.360 0 0 0
698 4 3.590 26.925 16.155 0 0 0
699 2 5.385 25.130 16.155 0 0 0
700 4 5.385 26.925 14.360 0 0 0
701 1 3.590 25.130 17.950 0 0 0
702 4 3.590 26.925 19.745 0 0 0
703 4 5.385 25.130 19.745 0 0 0
704 2 5.385 26.925 17.950 0 0 0
705 5 3.590 25.130 21.540 0 0 0
706 4 3.590 26.925 23.335 0 0 0
707 1 5.385 25.130 23.335 0 0 0
708 3 5.385 26.925 21.540 0 0 0
709 1 3.590 25.130 25.130 0 0 0
710 2 3.590 26.925 26.925 0 0 0
711 2 5.385 25.130 26.925 0 0 0
712 1 5.385 26.925 25.130 0 0 0
713 5 3.590 25.130 28.720 0 0 0
714 5 3.590 26.925 30.515 0 0 0
715 5 5.385 25.130 30.515 0 0 0
716 5 5.385 26.925 28.720 0 0 0
717 1 3.590 25.130 32.310 0 0 0
718 2 3.590 26.925 34.105 0 0 0
719 2 5.385 25.130 34.105 0 0 0
720 4 5.385 26.925 32.310 0 0 0
721 3 3.590 28.720 0.000 0 0 0
722 5 3.590 30.515 1.795 0 0 0
723 5 5.385 28.720 1.795 0 0 0
724 3 5.385 30.515 0.000 0 0 0
725 3 3.590 28.720 3.590 0 0 0
726 3 3.590 30.515 5.385 0 0 0
727 3 5.385 28.720 5.385 0 0 0
728 3 5.385 30.515 3.590 0 0 0
729 5 3.590 28.720 7.180 0 0 0
730 5 3.590 30.515 8.975 0 0 0
731 5 5.385 28.720 8.975 0 0 0
732 5 5.385 30.515 7.180 0 0 0
733 3 3.590 28.720 10.770 0 0 0
734 3 3.590 30.515 12.565 0 0 0
735 5 5.385 28.720 12.565 0 0 0
736 5 5.385 30.515 10.770 0 0 0
737 5 3.590 28.720 14.360 0 0 0
738 3 3.590 30.515 16.155 0 0 0
739 5 5.385 28.720 16.155 0 0 0
740 2 5.385 30.515 14.360 0 0 0
741 3 3.590 28.720 17.950 0 0 0
742 3 3.590 30.515 19.745 0 0 0
743 5 5.385 28.720 19.745 0 0 0
744 5 5.385 30.515 17.950 0 0 0
745 3 3.590 28.720 21.540 0 0 0
746 3 3.590 30.515 23.335 0 0 0
747 3 5.385 28.720 23.335 0 0 0
748 3 5.385 30.515 21.540 0 0 0
749 5 3.590 28.720 25.130 0 0 0
750 5 3.590 30.515 26.925 0 0 0
751 5 5.385 28.720 26.925 0 0 0
752 5 5.385 30.515 25.130 0 0 0
753 5 3.590 28.720 28.720 0 0 0
754 3 3.590 30.515 30.515 0 0 0
755 5 5.385 28.720 30.515 0 0 0
756 3 5.385 30.515 28.720 0 0 0
757 5 3.590 28.720 32.310 0 0 0
758 5 3.590 30.515 34.105 0 0 0
759 5 5.385 28.720 34.105 0 0 0
760 3 5.385 30.515 32.310 0 0 0
761 4 3.590 32.310 0.000 0 0 0
762 1 3.590 34.105 1.795 0 0 0
763 2 5.385 32.310 1.795 0 0 0
764 4 5.385 34.105 0.000 0 0 0
765 2 3.590 32.310 3.590 0 0 0
766 1 3.590 34.105 5.385 0 0 0
767 1 5.385 32.310 5.385 0 0 0
768 4 5.385 34.105 3.590 0 0 0
769 2 3.590 32.310 7.180 0 0 0
770 4 3.590 34.105 8.975 0 0 0
771 1 5.385 32.310 8.975 0 0 0
772 2 5.385 34.105 7.180 0 0 0
773 1 3.590 32.310 10.770 0 0 0
774 1 3.590 34.105 12.565 0 0 0
775 2 5.385 32.310 12.565 0 0 0
776 4 5.385 34.105 10.770 0 0 0
777 2 3.590 32.310 14.360 0 0 0
778 3 3.590 34.105 16.155 0 0 0
779 3 5.385 32.310 16.155 0 0 0
780 3 5.385 34.105 14.360 0 0 0
781 3 3.590 32.310 17.950 0 0 0
782 3 3.590 34.105 19.745 0 0 0
783 3 5.385 32.310 19.745 0 0 0
784 3 5.385 34.105 17.950 0 0 0
785 5 3.590 32.310 21.540 0 0 0
786 3 3.590 34.105 23.335 0 0 0
787 3 5.385 32.310 23.335 0 0 0
788 5 5.385 34.105 21.540 0 0 0
789 2 3.590 32.310 25.130 0 0 0
790 3 3.590 34.105 26.925 0 0 0
791 1 5.385 32.310 26.925 0 0 0
792 2 5.385 34.105 25.130 0 0 0
793 5 3.590 32.310 28.720 0 0 0
794 5 3.590 34.105 30.515 0 0 0
795 3 5.385 32.310 30.515 0 0 0
796 5 5.385 34.105 28.720 0 0 0
797 2 3.590 32.310 32.310 0 0 0
798 3 3.590 34.105 34.105 0 0 0
799 3 5.385 32.310 34.105 0 0 0
800 2 5.385 34.105 32.310 0 0 0
801 2 7.180 0.000 0.000 0 0 0
802 1 7.180 1.795 1.795 0 0 0
803 1 8.975 0.000 1.795 0 0 0
804 1 8.975 1.795 0.000 0 0 0
805 2 7.180 0.000 3.590 0 0 0
806 2 7.180 1.795 5.385 0 0 0
807 1 8.975 0.000 5.385 0 0 0
808 4 8.975 1.795 3.590 0 0 0
809 4 7.180 0.000 7.180 0 0 0
810 2 7.180 1.795 8.975 0 0 0
811 2 8.975 0.000 8.975 0 0 0
812 2 8.975 1.795 7.180 0 0 0
813 1 7.180 0.000 10.770 0 0 0
814 2 7.180 1.795 12.565 0 0 0
815 4 8.975 0.000 12.565 0 0 0
816 1 8.975 1.795 10.770 0 0 0
817 3 7.180 0.000 14.360 0 0 0
818 1 7.180 1.795 16.155 0 0 0
819 4 8.975 0.000 16.155 0 0 0
820 2 8.975 1.795 14.360 0 0 0
821 1 7.180 0.000 17.950 0 0 0
822 2 7.180 1.795 19.745 0 0 0
823 2 8.975 0.000 19.745 0 0 0
824 2 8.975 1.795 17.950 0 0 0
825 5 7.180 0.000 21.540 0 0 0
826 4 7.180 1.795 23.335 0 0 0
827 4 8.975 0.000 23.335 0 0 0
828 3 8.975 1.795 21.540 0 0 0
829 4 7.180 0.000 25.130 0 0 0
830 4 7.180 1.795 26.925 0 0 0
831 4 8.975 0.000 26.925 0 0 0
832 1 8.975 1.795 25.130 0 0 0
833 3 7.180 0.000 28.720 0 0 0
834 3 7.180 1.795 30.515 0 0 0
835 5 8.975 0.000 30.515 0 0 0
836 3 8.975 1.795 28.720 0 0 0
837 2 7.180 0.000 32.310 0 0 0
838 4 7.180 1.795 34.105 0 0 0
839 4 8.975 0.000 34.105 0 0 0
840 1 8.975 1.795 32.310 0 0 0
841 1 7.180 3.590 0.000 0 0 0
842 1 7.180 5.385 1.795 0 0 0
843 1 8.975 3.590 1.795 0 0 0
844 4 8.975 5.385 0.000 0 0 0
845 4 7.180 3.590 3.590 0 0 0
846 2 7.180 5.385 5.385 0 0 0
847 1 8.975 3.590 5.385 0 0 0
848 2 8.975 5.385 3.590 0 0 0
849 4 7.180 3.590 7.180 0 0 0
850 2 7.180 5.385 8.975 0 0 0
851 1 8.975 3.590 8.975 0 0 0
852 4 8.975 5.385 7.180 0 0 0
853 4 7.180 3.590 10.770 0 0 0
854 1 7.180 5.385 12.565 0 0 0
855 1 8.975 3.590 12.565 0 0 0
856 2 8.975 5.385 10.770 0 0 0
857 4 7.180 3.590 14.360 0 0 0
858 4 7.180 5.385 16.155 0 0 0
859 2 8.975 3.590 16.155 0 0 0
860 1 8.975 5.385 14.360 0 0 0
861 4 7.180 3.590 17.950 0 0 0
862 1 7.180 5.385 19.745 0 0 0
863 1 8.975 3.590 19.745 0 0 0
864 4 8.975 5.385 17.950 0 0 0
865 3 7.180 3.590 21.540 0 0 0
866 4 7.180 5.385 23.335 0 0 0
867 1 8.975 3.590 23.335 0 0 0
868 5 8.975 5.385 21.540 0 0 0
869 2 7.180 3.590 25.130 0 0 0
870 1 7.180 5.385 26.925 0 0 0
871 4 8.975 3.590 26.925 0 0 0
872 1 8.975 5.385 25.130 0 0 0
873 5 7.180 3.590 28.720 0 0 0
874 5 7.180 5.385 30.515 0 0 0
875 5 8.975 3.590 30.515 0 0 0
876 3 8.975 5.385 28.720 0 0 0
877 1 7.180 3.590 32.310 0 0 0
878 4 7.180 5.385 34.105 0 0 0
879 4 8.975 3.590 34.105 0 0 0
880 2 8.975 5.385 32.310 0 0 0
881 1 7.180 7.180 0.000 0 0 0
882 4 7.180 8.975 1.795 0 0 0
883 4 8.975 7.180 1.795 0 0 0
884 1 8.975 8.975 0.000 0 0 0
885 1 7.180 7.180 3.590 0 0 0
886 2 7.180 8.975 5.385 0 0 0
887 1 8.975 7.180 5.385 0 0 0
888 2 8.975 8.975 3.590 0 0 0
889 1 7.180 7.180 7.180 0 0 0
890 1 7.180 8.975 8.975 0 0 0
891 1 8.975 7.180 8.975 0 0 0
892 4 8.975 8.975 7.180 0 0 0
893 4 7.180 7.180 10.770 0 0 0
894 1 7.180 8.975 12.565 0 0 0
895 2 8.975 7.180 12.565 0 0 0
896 4 8.975 8.975 10.770 0 0 0
897 4 7.180 7.180 14.360 0 0 0
898 1 7.180 8.975 16.155 0 0 0
899 2 8.975 7.180 16.155 0 0 0
900 4 8.975 8.975 14.360 0 0 0
901 2 7.180 7.180 17.950 0 0 0
902 4 7.180 8.975 19.745 0 0 0
903 2 8.975 7.180 19.745 0 0 0
904 1 8.975 8.975 17.950 0 0 0
905 5 7.180 7.180 21.540 0 0 0
906 4 7.180 8.975 23.335 0 0 0
907 1 8.975 7.180 23.335 0 0 0
908 5 8.975 8.975 21.540 0 0 0
909 1 7.180 7.180 25.130 0 0 0
910 1 7.180 8.975 26.925 0 0 0
911 4 8.975 7.180 26.925 0 0 0
912 1 8.975 8.975 25.130 0 0 0
913 3 7.180 7.180 28.720 0 0 0
914 5 7.180 8.975 30.515 0 0 0
915 5 8.975 7.180 30.515 0 0 0
916 3 8.975 8.975 28.720 0 0 0
917 1 7.180 7.180 32.310 0 0 0
918 4 7.180 8.975 34.105 0 0 0
919 4 8.975 7.180 34.105 0 0 0
920 2 8.975 8.975 32.310 0 0 0
921 4 7.180 10.770 0.000 0 0 0
922 2 7.180 12.565 1.795 0 0 0
923 1 8.975 10.770 1.795 0 0 0
924 2 8.975 12.565 0.000 0 0 0
925 4 7.180 10.770 3.590 0 0 0
926 2 7.180 12.565 5.385 0 0 0
927 1 8.975 10.770 5.385 0 0 0
928 1 8.975 12.565 3.590 0 0 0
929 4 7.180 10.770 7.180 0 0 0
930 4 7.180 12.565 8.975 0 0 0
931 1 8.975 10.770 8.975 0 0 0
932 1 8.975 12.565 7.180 0 0 0
933 1 7.180 10.770 10.770 0 0 0
934 4 7.180 12.565 12.565 0 0 0
935 2 8.975 10.770 12.565 0 0 0
936 1 8.975 12.565 10.770 0 0 0
937 1 7.180 10.770 14.360 0 0 0
938 4 7.180 12.565 16.155 0 0 0
939 1 8.975 10.770 16.155 0 0 0
940 2 8.975 12.565 14.360 0 0 0
941 4 7.180 10.770 17.950 0 0 0
942 1 7.180 12.565 19.745 0 0 0
943 1 8.975 10.770 19.745 0 0 0
944 2 8.975 12.565 17.950 0 0 0
945 5 7.180 10.770 21.540 0 0 0
946 1 7.180 12.565 23.335 0 0 0
947 1 8.975 10.770 23.335 0 0 0
948 5 8.975 12.565 21.540 0 0 0
949 4 7.180 10.770 25.130 0 0 0
950 1 7.180 12.565 26.925 0 0 0
951 2 8.975 10.770 26.925 0 0 0
952 2 8.975 12.565 25.130 0 0 0
953 3 7.180 10.770 28.720 0 0 0
954 5 7.180 12.565 30.515 0 0 0
955 3 8.975 10.770 30.515 0 0 0