       N       E                     dE             d eps       ncg     rms          rms(c)
DAV:   1     0.264457958365E+04    0.26446E+04   -0.31251E+05 12372   0.145E+03
DAV:   2    -0.118897360175E+04   -0.38336E+04   -0.36643E+04 14130   0.338E+02
DAV:   3    -0.169454291833E+04   -0.50557E+03   -0.47912E+03 18896   0.831E+01
DAV:   4    -0.172035614607E+04   -0.25813E+02   -0.24897E+02 17312   0.186E+01
DAV:   5    -0.172144256728E+04   -0.10864E+01   -0.10698E+01 19344   0.391E+00    0.456E+01
DAV:   6    -0.166430079977E+04    0.57142E+02   -0.11222E+02 18072   0.142E+01    0.237E+01
DAV:   7    -0.164885526964E+04    0.15446E+02   -0.75860E+01 17760   0.143E+01    0.133E+01
DAV:   8    -0.163995807161E+04    0.88972E+01   -0.37274E+01 17352   0.116E+01    0.414E+00
DAV:   9    -0.163954660239E+04    0.41147E+00   -0.11164E+01 17632   0.530E+00    0.205E+00
DAV:  10    -0.163953355696E+04    0.13045E-01   -0.15219E+00 15616   0.185E+00    0.142E+00
DAV:  11    -0.163949605881E+04    0.37498E-01   -0.44355E-01 16888   0.852E-01    0.694E-01
DAV:  12    -0.163948401838E+04    0.12040E-01   -0.63389E-02 17312   0.379E-01    0.346E-01
DAV:  13    -0.163948016015E+04    0.38582E-02   -0.18302E-02 17600   0.221E-01    0.138E-01
DAV:  14    -0.163947977387E+04    0.38628E-03   -0.56068E-03 15440   0.118E-01    0.556E-02
DAV:  15    -0.163947982979E+04   -0.55917E-04   -0.14090E-03 14680   0.563E-02    0.252E-02
DAV:  16    -0.163947982674E+04    0.30470E-05   -0.21697E-04 15784   0.242E-02    0.138E-02
DAV:  17    -0.163947981643E+04    0.10311E-04   -0.44306E-05 10184   0.123E-02    0.682E-03
DAV:  18    -0.163947980909E+04    0.73365E-05   -0.16578E-05  8296   0.679E-03
   1 F= -.16394798E+04 E0= -.16394809E+04  d E =-.163948E+04
       N       E                     dE             d eps       ncg     rms          rms(c)
DAV:   1    -0.164031397717E+04   -0.83416E+00   -0.27455E+02 12348   0.217E+01    0.489E+00
DAV:   2    -0.163950223710E+04    0.81174E+00   -0.59639E+00 17096   0.328E+00    0.243E+00
DAV:   3    -0.163930714113E+04    0.19510E+00   -0.12792E+00 17096   0.179E+00    0.155E+00
DAV:   4    -0.163920900933E+04    0.98132E-01   -0.43290E-01 16920   0.129E+00    0.744E-01
DAV:   5    -0.163918931622E+04    0.19693E-01   -0.19924E-01 15632   0.760E-01    0.292E-01
DAV:   6    -0.163919035325E+04   -0.10370E-02   -0.32091E-02 15504   0.275E-01    0.207E-01
DAV:   7    -0.163919055836E+04   -0.20511E-03   -0.77289E-03 15952   0.117E-01    0.112E-01
DAV:   8    -0.163919084730E+04   -0.28893E-03   -0.21090E-03 15552   0.748E-02    0.585E-02
DAV:   9    -0.163919070592E+04    0.14138E-03   -0.58838E-04 16392   0.436E-02    0.298E-02
DAV:  10    -0.163919067276E+04    0.33160E-04   -0.40875E-04 17928   0.257E-02    0.154E-02
DAV:  11    -0.163919067897E+04   -0.62129E-05   -0.39145E-05 10016   0.998E-03
   2 F= -.16391907E+04 E0= -.16391846E+04  d E =0.289130E+00
       N       E                     dE             d eps       ncg     rms          rms(c)
DAV:   1    -0.164118127187E+04   -0.19906E+01   -0.45230E+01 12348   0.107E+01    0.369E+00
DAV:   2    -0.164053108693E+04    0.65018E+00   -0.10048E+00 12960   0.146E+00    0.171E+00
DAV:   3    -0.164037813436E+04    0.15295E+00   -0.39022E-01 14526   0.101E+00    0.628E-01
DAV:   4    -0.164035769965E+04    0.20435E-01   -0.11025E-01 15384   0.684E-01    0.239E-01
DAV:   5    -0.164035528506E+04    0.24146E-02   -0.36924E-02 15272   0.361E-01    0.964E-02
DAV:   6    -0.164035626263E+04   -0.97756E-03   -0.76314E-03 16240   0.125E-01    0.713E-02
DAV:   7    -0.164035662853E+04   -0.36590E-03   -0.98931E-04 16152   0.443E-02    0.409E-02
DAV:   8    -0.164035685045E+04   -0.22192E-03   -0.27359E-04 14552   0.253E-02    0.203E-02
DAV:   9    -0.164035692957E+04   -0.79119E-04   -0.13941E-04 14840   0.170E-02    0.969E-03
DAV:  10    -0.164035695590E+04   -0.26335E-04   -0.45713E-05 11120   0.110E-02    0.512E-03
DAV:  11    -0.164035695464E+04    0.12603E-05   -0.81803E-06  7344   0.483E-03
   3 F= -.16403570E+04 E0= -.16403581E+04  d E =-.116628E+01
       N       E                     dE             d eps       ncg     rms          rms(c)
DAV:   1    -0.164048354747E+04   -0.12659E+00   -0.97562E+00 12348   0.414E+00    0.820E-01
DAV:   2    -0.164046877631E+04    0.14771E-01   -0.16187E-01 17544   0.596E-01    0.459E-01
DAV:   3    -0.164046284125E+04    0.59351E-02   -0.38886E-02 18104   0.331E-01    0.302E-01
DAV:   4    -0.164045829417E+04    0.45471E-02   -0.17440E-02 17160   0.251E-01    0.103E-01
DAV:   5    -0.164045797928E+04    0.31489E-03   -0.52553E-03 15736   0.119E-01    0.505E-02
DAV:   6    -0.164045802795E+04   -0.48671E-04   -0.83850E-04 16616   0.406E-02    0.354E-02
DAV:   7    -0.164045803031E+04   -0.23550E-05   -0.16896E-04 16656   0.186E-02    0.202E-02
DAV:   8    -0.164045803472E+04   -0.44150E-05   -0.67467E-05 14504   0.140E-02
   4 F= -.16404580E+04 E0= -.16404577E+04  d E =-.101080E+00
       N       E                     dE             d eps       ncg     rms          rms(c)
DAV:   1    -0.164046237128E+04   -0.43410E-02   -0.97756E-01 12385   0.125E+00    0.169E-01
DAV:   2    -0.164046288501E+04   -0.51373E-03   -0.16911E-02 17616   0.195E-01    0.101E-01
DAV:   3    -0.164046267521E+04    0.20981E-03   -0.27312E-03 17911   0.909E-02    0.744E-02
DAV:   4    -0.164046255629E+04    0.11892E-03   -0.62960E-04 18536   0.456E-02    0.414E-02
DAV:   5    -0.164046252615E+04    0.30136E-04   -0.33529E-04 14560   0.261E-02    0.111E-02
DAV:   6    -0.164046252433E+04    0.18181E-05   -0.34853E-05  9736   0.964E-03
   5 F= -.16404625E+04 E0= -.16404623E+04  d E =-.448961E-02
       N       E                     dE             d eps       ncg     rms          rms(c)
DAV:   1    -0.164046348892E+04   -0.96277E-03   -0.92318E-02 12600   0.397E-01    0.750E-02
DAV:   2    -0.164046341375E+04    0.75169E-04   -0.15748E-03 17048   0.625E-02    0.392E-02
DAV:   3    -0.164046339426E+04    0.19494E-04   -0.33307E-04 18120   0.316E-02    0.267E-02
DAV:   4    -0.164046338607E+04    0.81870E-05   -0.11647E-04 16280   0.209E-02    0.124E-02
DAV:   5    -0.164046339666E+04   -0.10586E-04   -0.48007E-05 12128   0.108E-02    0.462E-03
DAV:   6    -0.164046339640E+04    0.25365E-06   -0.59565E-06  7192   0.451E-03
   6 F= -.16404634E+04 E0= -.16404633E+04  d E =-.872069E-03
       N       E                     dE             d eps       ncg     rms          rms(c)
DAV:   1    -0.164046377028E+04   -0.37362E-03   -0.41132E-02 12600   0.259E-01    0.386E-02
DAV:   2    -0.164046373136E+04    0.38914E-04   -0.49407E-04 15856   0.455E-02    0.242E-02
DAV:   3    -0.164046369935E+04    0.32010E-04   -0.13438E-04 16040   0.230E-02    0.174E-02
DAV:   4    -0.164046367108E+04    0.28275E-04   -0.37734E-05  9512   0.114E-02    0.501E-03
DAV:   5    -0.164046366691E+04    0.41717E-05   -0.11114E-05  7032   0.597E-03
   7 F= -.16404637E+04 E0= -.16404635E+04  d E =-.270503E-03
       N       E                     dE             d eps       ncg     rms          rms(c)
DAV:   1    -0.164046376114E+04   -0.90060E-04   -0.93597E-03 12600   0.127E-01    0.245E-02
DAV:   2    -0.164046376462E+04   -0.34793E-05   -0.10607E-04 15160   0.181E-02    0.139E-02
DAV:   3    -0.164046376729E+04   -0.26695E-05   -0.26536E-05  9792   0.103E-02    0.904E-03
DAV:   4    -0.164046377570E+04   -0.84135E-05   -0.13083E-05  7296   0.733E-03    0.196E-03
DAV:   5    -0.164046377821E+04   -0.25055E-05   -0.47777E-06  6864   0.402E-03
   8 F= -.16404638E+04 E0= -.16404636E+04  d E =-.111300E-03
       N       E                     dE             d eps       ncg     rms          rms(c)
DAV:   1    -0.164046385973E+04   -0.84030E-04   -0.52031E-03 12600   0.933E-02    0.159E-02
DAV:   2    -0.164046384299E+04    0.16736E-04   -0.56061E-05 13704   0.145E-02    0.942E-03
DAV:   3    -0.164046383615E+04    0.68429E-05   -0.13933E-05  8552   0.807E-03    0.657E-03
DAV:   4    -0.164046382643E+04    0.97247E-05   -0.80183E-06  6880   0.492E-03    0.148E-03
DAV:   5    -0.164046382539E+04    0.10340E-05   -0.24462E-06  6856   0.311E-03
   9 F= -.16404638E+04 E0= -.16404637E+04  d E =-.471863E-04
       N       E                     dE             d eps       ncg     rms          rms(c)
DAV:   1    -0.164046385432E+04   -0.27893E-04   -0.36891E-03 12600   0.766E-02    0.940E-03
DAV:   2    -0.164046385859E+04   -0.42700E-05   -0.26072E-05  9128   0.102E-02    0.633E-03
DAV:   3    -0.164046385959E+04   -0.10004E-05   -0.71307E-06  7024   0.631E-03    0.450E-03
DAV:   4    -0.164046386316E+04   -0.35716E-05   -0.53373E-06  6776   0.414E-03    0.797E-04
DAV:   5    -0.164046386323E+04   -0.68224E-07   -0.21583E-06  6736   0.294E-03
  10 F= -.16404639E+04 E0= -.16404637E+04  d E =-.378369E-04
       N       E                     dE             d eps       ncg     rms          rms(c)
DAV:   1    -0.164046388557E+04   -0.22412E-04   -0.16001E-03 12600   0.511E-02    0.781E-03
DAV:   2    -0.164046387911E+04    0.64594E-05   -0.12963E-05  6768   0.681E-03    0.472E-03
DAV:   3    -0.164046387657E+04    0.25465E-05   -0.46395E-06  6744   0.481E-03    0.306E-03
DAV:   4    -0.164046387300E+04    0.35623E-05   -0.30067E-06  6552   0.344E-03    0.841E-04
DAV:   5    -0.164046387271E+04    0.29195E-06   -0.14572E-06  6552   0.233E-03
  11 F= -.16404639E+04 E0= -.16404637E+04  d E =-.948395E-05
       N       E                     dE             d eps       ncg     rms          rms(c)
DAV:   1    -0.164046388040E+04   -0.73910E-05   -0.67885E-04 12600   0.336E-02    0.565E-03
DAV:   2    -0.164046388375E+04   -0.33501E-05   -0.56893E-06  6552   0.407E-03    0.331E-03
DAV:   3    -0.164046388651E+04   -0.27600E-05   -0.24698E-06  6552   0.296E-03    0.141E-03
DAV:   4    -0.164046388797E+04   -0.14643E-05   -0.12374E-06  6552   0.240E-03    0.560E-04
DAV:   5    -0.164046388837E+04   -0.39745E-06   -0.67248E-07  6552   0.151E-03
  12 F= -.16404639E+04 E0= -.16404637E+04  d E =-.156548E-04
       N       E                     dE             d eps       ncg     rms          rms(c)
DAV:   1    -0.164046390075E+04   -0.12781E-04   -0.11147E-03 12600   0.419E-02    0.471E-03
DAV:   2    -0.164046389932E+04    0.14265E-05   -0.70826E-06  6912   0.469E-03    0.328E-03
DAV:   3    -0.164046389857E+04    0.75612E-06   -0.23336E-06  6624   0.291E-03    0.210E-03
DAV:   4    -0.164046389721E+04    0.13539E-05   -0.15445E-06  6552   0.233E-03    0.365E-04
DAV:   5    -0.164046389743E+04   -0.21210E-06   -0.75318E-07  6552   0.163E-03
  13 F= -.16404639E+04 E0= -.16404637E+04  d E =-.905929E-05
       N       E                     dE             d eps       ncg     rms          rms(c)
DAV:   1    -0.164046390320E+04   -0.59907E-05   -0.95495E-04 12600   0.390E-02    0.471E-03
DAV:   2    -0.164046390555E+04   -0.23467E-05   -0.62508E-06  6816   0.418E-03    0.316E-03
DAV:   3    -0.164046390743E+04   -0.18767E-05   -0.24460E-06  6648   0.262E-03    0.117E-03
DAV:   4    -0.164046390839E+04   -0.96396E-06   -0.12133E-06  6552   0.215E-03    0.412E-04
DAV:   5    -0.164046390840E+04   -0.68667E-08   -0.67247E-07  6552   0.149E-03
  14 F= -.16404639E+04 E0= -.16404638E+04  d E =-.109729E-04
       N       E                     dE             d eps       ncg     rms          rms(c)
DAV:   1    -0.164046391437E+04   -0.59795E-05   -0.12399E-04 12352   0.149E-02    0.331E-03
DAV:   2    -0.164046391125E+04    0.31243E-05   -0.15348E-06  6552   0.202E-03    0.174E-03
DAV:   3    -0.164046390923E+04    0.20125E-05   -0.73686E-07  6552   0.153E-03    0.701E-04
DAV:   4    -0.164046390843E+04    0.80163E-06   -0.34510E-07  6552   0.125E-03    0.312E-04
DAV:   5    -0.164046390812E+04    0.30958E-06   -0.19156E-07  6552   0.776E-04
  15 F= -.16404639E+04 E0= -.16404638E+04  d E =0.275403E-06
       N       E                     dE             d eps       ncg     rms          rms(c)
DAV:   1    -0.164046391255E+04   -0.41146E-05   -0.54048E-04 12600   0.292E-02    0.314E-03
DAV:   2    -0.164046391349E+04   -0.94562E-06   -0.31407E-06  6552   0.296E-03    0.224E-03
DAV:   3    -0.164046391434E+04   -0.84532E-06   -0.12135E-06  6552   0.173E-03    0.556E-04
DAV:   4    -0.164046391464E+04   -0.30440E-06   -0.55155E-07  6552   0.138E-03    0.256E-04
DAV:   5    -0.164046391458E+04    0.65390E-07   -0.30922E-07  6552   0.978E-04
  16 F= -.16404639E+04 E0= -.16404638E+04  d E =-.645414E-05
       N       E                     dE             d eps       ncg     rms          rms(c)
DAV:   1    -0.164046392126E+04   -0.66158E-05   -0.90197E-04 12600   0.377E-02    0.415E-03
DAV:   2    -0.164046391987E+04    0.13930E-05   -0.53689E-06  6624   0.387E-03    0.290E-03
DAV:   3    -0.164046391848E+04    0.13817E-05   -0.19858E-06  6600   0.224E-03    0.992E-04
DAV:   4    -0.164046391794E+04    0.54864E-06   -0.95958E-07  6552   0.183E-03    0.328E-04
DAV:   5    -0.164046391809E+04   -0.15379E-06   -0.52410E-07  6552   0.130E-03
  17 F= -.16404639E+04 E0= -.16404638E+04  d E =-.351164E-05
       N       E                     dE             d eps       ncg     rms          rms(c)
DAV:   1    -0.164046391588E+04    0.20514E-05   -0.26935E-05  7368   0.825E-03    0.241E-03
DAV:   2    -0.164046391811E+04   -0.22246E-05   -0.14618E-06  6576   0.261E-03    0.123E-03
DAV:   3    -0.164046392002E+04   -0.19119E-05   -0.24525E-07  6552   0.829E-04    0.489E-04
DAV:   4    -0.164046392061E+04   -0.58828E-06   -0.10275E-07  6552   0.791E-04    0.209E-04
DAV:   5    -0.164046392097E+04   -0.35706E-06   -0.61153E-08  6552   0.366E-04
  18 F= -.16404639E+04 E0= -.16404638E+04  d E =-.287664E-05
       N       E                     dE             d eps       ncg     rms          rms(c)
DAV:   1    -0.164046392491E+04   -0.43011E-05   -0.38009E-04 12496   0.245E-02    0.257E-03
DAV:   2    -0.164046392426E+04    0.65183E-06   -0.21089E-06  6552   0.240E-03    0.183E-03
DAV:   3    -0.164046392350E+04    0.75981E-06   -0.76684E-07  6552   0.131E-03    0.479E-04
DAV:   4    -0.164046392328E+04    0.21673E-06   -0.33781E-07  6552   0.100E-03    0.204E-04
DAV:   5    -0.164046392337E+04   -0.85506E-07   -0.18200E-07  6552   0.734E-04
  19 F= -.16404639E+04 E0= -.16404638E+04  d E =-.240119E-05
       N       E                     dE             d eps       ncg     rms          rms(c)
DAV:   1    -0.164046392598E+04   -0.27028E-05   -0.75917E-04 12568   0.345E-02    0.359E-03
DAV:   2    -0.164046392691E+04   -0.92590E-06   -0.43074E-06  6552   0.346E-03    0.260E-03
DAV:   3    -0.164046392782E+04   -0.91081E-06   -0.17971E-06  6536   0.194E-03    0.356E-04
DAV:   4    -0.164046392788E+04   -0.58892E-07   -0.70473E-07  6552   0.128E-03    0.220E-04
DAV:   5    -0.164046392788E+04   -0.72532E-09   -0.38273E-07  6552   0.978E-04
  20 F= -.16404639E+04 E0= -.16404638E+04  d E =-.451360E-05
       N       E                     dE             d eps       ncg     rms          rms(c)
DAV:   1    -0.164046392945E+04   -0.15698E-05   -0.88637E-05 12248   0.127E-02    0.273E-03
DAV:   2    -0.164046392679E+04    0.26647E-05   -0.71394E-07  6552   0.136E-03    0.143E-03
DAV:   3    -0.164046392485E+04    0.19368E-05   -0.33961E-07  6552   0.866E-04    0.434E-04
DAV:   4    -0.164046392432E+04    0.52935E-06   -0.88466E-08  6552   0.661E-04    0.218E-04
DAV:   5    -0.164046392410E+04    0.21928E-06   -0.32583E-08  6552   0.371E-04
  21 F= -.16404639E+04 E0= -.16404638E+04  d E =0.378105E-05
       N       E                     dE             d eps       ncg     rms          rms(c)
DAV:   1    -0.164046392540E+04   -0.10846E-05   -0.29406E-04 12488   0.216E-02    0.235E-03
DAV:   2    -0.164046392633E+04   -0.93110E-06   -0.15602E-06  6552   0.209E-03    0.162E-03
DAV:   3    -0.164046392730E+04   -0.96710E-06   -0.57869E-07  6552   0.110E-03    0.288E-04
DAV:   4    -0.164046392744E+04   -0.13598E-06   -0.21650E-07  6552   0.739E-04    0.160E-04
DAV:   5    -0.164046392742E+04    0.13653E-07   -0.11269E-07  6552   0.553E-04
  22 F= -.16404639E+04 E0= -.16404638E+04  d E =-.332437E-05
       N       E                     dE             d eps       ncg     rms          rms(c)
DAV:   1    -0.164046392912E+04   -0.16819E-05   -0.28163E-04 12448   0.210E-02    0.218E-03
DAV:   2    -0.164046392893E+04    0.19246E-06   -0.16770E-06  6552   0.217E-03    0.158E-03
DAV:   3    -0.164046392857E+04    0.35371E-06   -0.69587E-07  6536   0.122E-03    0.222E-04
DAV:   4    -0.164046392859E+04   -0.14021E-07   -0.28207E-07  6552   0.832E-04    0.154E-04
DAV:   5    -0.164046392862E+04   -0.30904E-07   -0.15649E-07  6552   0.639E-04
  23 F= -.16404639E+04 E0= -.16404638E+04  d E =-.119430E-05
