       N       E                     dE             d eps       ncg     rms          rms(c)
DAV:   1     0.194185090408E+04    0.19419E+04   -0.27683E+05 11172   0.142E+03
DAV:   2    -0.118836376778E+04   -0.31302E+04   -0.30106E+04 12934   0.266E+02
DAV:   3    -0.157748107003E+04   -0.38912E+03   -0.35336E+03 17536   0.820E+01
DAV:   4    -0.160235927042E+04   -0.24878E+02   -0.22466E+02 15856   0.161E+01
DAV:   5    -0.160350192578E+04   -0.11427E+01   -0.11130E+01 16736   0.445E+00    0.378E+01
DAV:   6    -0.156819778740E+04    0.35304E+02   -0.10396E+02 17632   0.144E+01    0.224E+01
DAV:   7    -0.155809001193E+04    0.10108E+02   -0.93742E+01 17656   0.157E+01    0.178E+01
DAV:   8    -0.154834002927E+04    0.97500E+01   -0.65749E+01 16688   0.116E+01    0.113E+01
DAV:   9    -0.154155103870E+04    0.67890E+01   -0.27617E+01 16384   0.824E+00    0.337E+00
DAV:  10    -0.154135123527E+04    0.19980E+00   -0.53978E+00 15992   0.320E+00    0.148E+00
DAV:  11    -0.154135542924E+04   -0.41940E-02   -0.63666E-01 15168   0.119E+00    0.111E+00
DAV:  12    -0.154133401273E+04    0.21417E-01   -0.22706E-01 14352   0.659E-01    0.638E-01
DAV:  13    -0.154132321486E+04    0.10798E-01   -0.61687E-02 14312   0.393E-01    0.396E-01
DAV:  14    -0.154131834408E+04    0.48708E-02   -0.21889E-02 16352   0.244E-01    0.244E-01
DAV:  15    -0.154131617639E+04    0.21677E-02   -0.99776E-03 15328   0.153E-01    0.105E-01
DAV:  16    -0.154131606930E+04    0.10709E-03   -0.35006E-03 15720   0.820E-02    0.524E-02
DAV:  17    -0.154131605283E+04    0.16470E-04   -0.87838E-04 14456   0.413E-02    0.258E-02
DAV:  18    -0.154131605223E+04    0.59533E-06   -0.20137E-04 15184   0.225E-02    0.182E-02
DAV:  19    -0.154131603632E+04    0.15916E-04   -0.69295E-05 12048   0.143E-02    0.101E-02
DAV:  20    -0.154131602845E+04    0.78687E-05   -0.20797E-05  6936   0.797E-03
   1 F= -.15413160E+04 E0= -.15413159E+04  d E =-.154132E+04
       N       E                     dE             d eps       ncg     rms          rms(c)
DAV:   1    -0.154525735661E+04   -0.39413E+01   -0.26679E+03 11172   0.799E+01    0.277E+01
DAV:   2    -0.151761299316E+04    0.27644E+02   -0.17410E+02 18624   0.185E+01    0.190E+01
DAV:   3    -0.150975345718E+04    0.78595E+01   -0.10054E+02 18632   0.140E+01    0.149E+01
DAV:   4    -0.150180315037E+04    0.79503E+01   -0.46884E+01 19800   0.925E+00    0.106E+01
DAV:   5    -0.149798946848E+04    0.38137E+01   -0.32036E+01 18736   0.680E+00    0.542E+00
DAV:   6    -0.149701203207E+04    0.97744E+00   -0.92651E+00 18496   0.408E+00    0.331E+00
DAV:   7    -0.149671467752E+04    0.29735E+00   -0.21292E+00 17968   0.190E+00    0.213E+00
DAV:   8    -0.149664462666E+04    0.70051E-01   -0.54581E-01 17328   0.799E-01    0.114E+00
DAV:   9    -0.149663546056E+04    0.91661E-02   -0.25495E-01 17816   0.513E-01    0.577E-01
DAV:  10    -0.149663395949E+04    0.15011E-02   -0.83168E-02 18000   0.394E-01    0.459E-01
DAV:  11    -0.149662669143E+04    0.72681E-02   -0.37653E-02 18184   0.244E-01    0.204E-01
DAV:  12    -0.149662643735E+04    0.25408E-03   -0.11113E-02 18112   0.118E-01    0.111E-01
DAV:  13    -0.149662685829E+04   -0.42095E-03   -0.28328E-03 17624   0.689E-02    0.817E-02
DAV:  14    -0.149662704921E+04   -0.19092E-03   -0.15945E-03 17424   0.536E-02    0.567E-02
DAV:  15    -0.149662711089E+04   -0.61675E-04   -0.86159E-04 16296   0.356E-02    0.333E-02
DAV:  16    -0.149662709287E+04    0.18019E-04   -0.26430E-04 17504   0.200E-02    0.149E-02
DAV:  17    -0.149662709585E+04   -0.29847E-05   -0.47253E-05  9688   0.102E-02
   2 F= -.14966271E+04 E0= -.14966364E+04  d E =0.446889E+02
       N       E                     dE             d eps       ncg     rms          rms(c)
DAV:   1    -0.157476609715E+04   -0.78139E+02   -0.13438E+03 11172   0.628E+01    0.193E+01
DAV:   2    -0.155998363678E+04    0.14782E+02   -0.49440E+01 17192   0.114E+01    0.104E+01
DAV:   3    -0.155698495653E+04    0.29987E+01   -0.32478E+01 18184   0.866E+00    0.834E+00
DAV:   4    -0.155419600322E+04    0.27890E+01   -0.14755E+01 17576   0.581E+00    0.546E+00
DAV:   5    -0.155269121511E+04    0.15048E+01   -0.80230E+00 16120   0.417E+00    0.189E+00
DAV:   6    -0.155259757076E+04    0.93644E-01   -0.18791E+00 15584   0.194E+00    0.101E+00
DAV:   7    -0.155259681720E+04    0.75356E-03   -0.27125E-01 14776   0.802E-01    0.775E-01
DAV:   8    -0.155259888303E+04   -0.20658E-02   -0.80932E-02 15544   0.365E-01    0.385E-01
DAV:   9    -0.155261031174E+04   -0.11429E-01   -0.47400E-02 16040   0.246E-01    0.232E-01
DAV:  10    -0.155261102833E+04   -0.71660E-03   -0.10200E-02 16392   0.165E-01    0.157E-01
DAV:  11    -0.155261060544E+04    0.42290E-03   -0.44700E-03 17328   0.100E-01    0.774E-02
DAV:  12    -0.155261087620E+04   -0.27076E-03   -0.20177E-03 16288   0.576E-02    0.465E-02
DAV:  13    -0.155261116253E+04   -0.28634E-03   -0.65093E-04 14472   0.347E-02    0.247E-02
DAV:  14    -0.155261118391E+04   -0.21380E-04   -0.15032E-04 14400   0.195E-02    0.157E-02
DAV:  15    -0.155261117855E+04    0.53667E-05   -0.43360E-05  8936   0.107E-02
   3 F= -.15526112E+04 E0= -.15526303E+04  d E =-.559841E+02
       N       E                     dE             d eps       ncg     rms          rms(c)
DAV:   1    -0.155308324518E+04   -0.47206E+00   -0.31682E+01 11172   0.795E+00    0.129E+00
DAV:   2    -0.155305617467E+04    0.27071E-01   -0.51787E-01 16176   0.850E-01    0.778E-01
DAV:   3    -0.155304968273E+04    0.64919E-02   -0.13773E-01 18336   0.548E-01    0.664E-01
DAV:   4    -0.155302909637E+04    0.20586E-01   -0.71200E-02 17504   0.417E-01    0.347E-01
DAV:   5    -0.155302443318E+04    0.46632E-02   -0.33085E-02 15128   0.260E-01    0.136E-01
DAV:   6    -0.155302413285E+04    0.30034E-03   -0.76033E-03 15784   0.136E-01    0.866E-02
DAV:   7    -0.155302406583E+04    0.67012E-04   -0.19133E-03 16120   0.699E-02    0.630E-02
DAV:   8    -0.155302400002E+04    0.65811E-04   -0.64155E-04 16192   0.367E-02    0.342E-02
DAV:   9    -0.155302403237E+04   -0.32349E-04   -0.24164E-04 15584   0.218E-02    0.233E-02
DAV:  10    -0.155302403634E+04   -0.39721E-05   -0.97984E-05 14056   0.168E-02
   4 F= -.15530240E+04 E0= -.15530408E+04  d E =-.412858E+00
       N       E                     dE             d eps       ncg     rms          rms(c)
DAV:   1    -0.155309612966E+04   -0.72097E-01   -0.53123E+00 11172   0.312E+00    0.521E-01
DAV:   2    -0.155310096420E+04   -0.48345E-02   -0.15050E-01 18000   0.567E-01    0.445E-01
DAV:   3    -0.155309112942E+04    0.98348E-02   -0.54116E-02 18136   0.371E-01    0.257E-01
DAV:   4    -0.155308868311E+04    0.24463E-02   -0.12012E-02 17736   0.156E-01    0.166E-01
DAV:   5    -0.155308786318E+04    0.81993E-03   -0.49987E-03 15952   0.104E-01    0.993E-02
DAV:   6    -0.155308754674E+04    0.31644E-03   -0.24756E-03 15920   0.800E-02    0.583E-02
DAV:   7    -0.155308738371E+04    0.16303E-03   -0.84075E-04 15496   0.467E-02    0.291E-02
DAV:   8    -0.155308738485E+04   -0.11389E-05   -0.19588E-04 15560   0.185E-02    0.180E-02
DAV:   9    -0.155308738786E+04   -0.30097E-05   -0.48017E-05 10104   0.108E-02
   5 F= -.15530874E+04 E0= -.15531039E+04  d E =-.633515E-01
       N       E                     dE             d eps       ncg     rms          rms(c)
DAV:   1    -0.155311225494E+04   -0.24870E-01   -0.27017E+00 11172   0.221E+00    0.260E-01
DAV:   2    -0.155311618350E+04   -0.39286E-02   -0.48472E-02 17216   0.295E-01    0.251E-01
DAV:   3    -0.155311331074E+04    0.28728E-02   -0.13206E-02 17792   0.185E-01    0.145E-01
DAV:   4    -0.155311290054E+04    0.41020E-03   -0.31154E-03 16160   0.781E-02    0.100E-01
DAV:   5    -0.155311269718E+04    0.20336E-03   -0.17369E-03 15112   0.621E-02    0.512E-02
DAV:   6    -0.155311263962E+04    0.57559E-04   -0.70020E-04 16552   0.441E-02    0.273E-02
DAV:   7    -0.155311261403E+04    0.25583E-04   -0.23963E-04 16440   0.231E-02    0.135E-02
DAV:   8    -0.155311260572E+04    0.83086E-05   -0.36804E-05  8040   0.976E-03
   6 F= -.15531126E+04 E0= -.15531285E+04  d E =-.252179E-01
       N       E                     dE             d eps       ncg     rms          rms(c)
DAV:   1    -0.155312394223E+04   -0.11328E-01   -0.65135E-01 11312   0.113E+00    0.231E-01
DAV:   2    -0.155312383075E+04    0.11148E-03   -0.20816E-02 18232   0.226E-01    0.190E-01
DAV:   3    -0.155312198673E+04    0.18440E-02   -0.96201E-03 18304   0.157E-01    0.110E-01
DAV:   4    -0.155312146053E+04    0.52620E-03   -0.22951E-03 16448   0.679E-02    0.699E-02
DAV:   5    -0.155312124002E+04    0.22051E-03   -0.10626E-03 15928   0.504E-02    0.399E-02
DAV:   6    -0.155312115227E+04    0.87750E-04   -0.45279E-04 15936   0.350E-02    0.226E-02
DAV:   7    -0.155312112383E+04    0.28444E-04   -0.13765E-04 14248   0.188E-02    0.119E-02
DAV:   8    -0.155312112599E+04   -0.21590E-05   -0.25763E-05  6824   0.804E-03
   7 F= -.15531211E+04 E0= -.15531369E+04  d E =-.852026E-02
       N       E                     dE             d eps       ncg     rms          rms(c)
DAV:   1    -0.155312779743E+04   -0.66736E-02   -0.49653E-01 11228   0.957E-01    0.122E-01
DAV:   2    -0.155312838218E+04   -0.58475E-03   -0.78044E-03 16976   0.119E-01    0.111E-01
DAV:   3    -0.155312786617E+04    0.51601E-03   -0.23575E-03 17865   0.782E-02    0.670E-02
DAV:   4    -0.155312779465E+04    0.71515E-04   -0.69135E-04 15688   0.369E-02    0.410E-02
DAV:   5    -0.155312777193E+04    0.22720E-04   -0.36633E-04 15352   0.293E-02    0.199E-02
DAV:   6    -0.155312776427E+04    0.76585E-05   -0.11783E-04 14336   0.188E-02    0.103E-02
DAV:   7    -0.155312776092E+04    0.33506E-05   -0.30175E-05  7216   0.975E-03
   8 F= -.15531278E+04 E0= -.15531434E+04  d E =-.663494E-02
       N       E                     dE             d eps       ncg     rms          rms(c)
DAV:   1    -0.155313127977E+04   -0.35155E-02   -0.30681E-01 11256   0.742E-01    0.105E-01
DAV:   2    -0.155313187849E+04   -0.59872E-03   -0.72290E-03 18248   0.131E-01    0.113E-01
DAV:   3    -0.155313112070E+04    0.75780E-03   -0.29224E-03 18136   0.865E-02    0.535E-02
DAV:   4    -0.155313102866E+04    0.92032E-04   -0.49938E-04 15984   0.306E-02    0.370E-02
DAV:   5    -0.155313098122E+04    0.47445E-04   -0.22989E-04 16136   0.236E-02    0.228E-02
DAV:   6    -0.155313095384E+04    0.27378E-04   -0.11630E-04 14632   0.182E-02    0.122E-02
DAV:   7    -0.155313094440E+04    0.94401E-05   -0.33431E-05  7872   0.104E-02
   9 F= -.15531309E+04 E0= -.15531464E+04  d E =-.318348E-02
       N       E                     dE             d eps       ncg     rms          rms(c)
DAV:   1    -0.155313241122E+04   -0.14574E-02   -0.13185E-01 11326   0.491E-01    0.620E-02
DAV:   2    -0.155313259788E+04   -0.18666E-03   -0.19540E-03 17048   0.610E-02    0.587E-02
DAV:   3    -0.155313244953E+04    0.14835E-03   -0.63561E-04 17920   0.407E-02    0.341E-02
DAV:   4    -0.155313244529E+04    0.42329E-05   -0.17270E-04 14840   0.185E-02    0.190E-02
DAV:   5    -0.155313244876E+04   -0.34688E-05   -0.77333E-05 13040   0.144E-02
  10 F= -.15531324E+04 E0= -.15531478E+04  d E =-.150436E-02
       N       E                     dE             d eps       ncg     rms          rms(c)
DAV:   1    -0.155313348843E+04   -0.10431E-02   -0.56121E-02 11326   0.324E-01    0.563E-02
DAV:   2    -0.155313350334E+04   -0.14908E-04   -0.13593E-03 18088   0.572E-02    0.505E-02
DAV:   3    -0.155313336317E+04    0.14017E-03   -0.59923E-04 18184   0.396E-02    0.279E-02
DAV:   4    -0.155313332398E+04    0.39186E-04   -0.13455E-04 15584   0.161E-02    0.181E-02
DAV:   5    -0.155313329957E+04    0.24417E-04   -0.59191E-05 11208   0.130E-02    0.103E-02
DAV:   6    -0.155313328796E+04    0.11609E-04   -0.20591E-05  7136   0.976E-03    0.486E-03
DAV:   7    -0.155313328612E+04    0.18422E-05   -0.79319E-06  6216   0.536E-03
  11 F= -.15531333E+04 E0= -.15531486E+04  d E =-.837352E-03
       N       E                     dE             d eps       ncg     rms          rms(c)
DAV:   1    -0.155313393916E+04   -0.65120E-03   -0.61475E-02 11312   0.330E-01    0.351E-02
DAV:   2    -0.155313406261E+04   -0.12345E-03   -0.90258E-04 17320   0.432E-02    0.409E-02
DAV:   3    -0.155313397574E+04    0.86870E-04   -0.30275E-04 17688   0.285E-02    0.207E-02
DAV:   4    -0.155313397652E+04   -0.77809E-06   -0.52847E-05 10368   0.108E-02    0.128E-02
DAV:   5    -0.155313397998E+04   -0.34563E-05   -0.23253E-05  7240   0.955E-03
  12 F= -.15531340E+04 E0= -.15531493E+04  d E =-.693864E-03
       N       E                     dE             d eps       ncg     rms          rms(c)
DAV:   1    -0.155313440433E+04   -0.42781E-03   -0.34705E-02 11326   0.250E-01    0.336E-02
DAV:   2    -0.155313443444E+04   -0.30105E-04   -0.66043E-04 17768   0.382E-02    0.336E-02
DAV:   3    -0.155313437098E+04    0.63455E-04   -0.24358E-04 17112   0.258E-02    0.176E-02
DAV:   4    -0.155313435589E+04    0.15096E-04   -0.42778E-05  9192   0.100E-02    0.115E-02
DAV:   5    -0.155313434578E+04    0.10107E-04   -0.20345E-05  6648   0.822E-03    0.676E-03
DAV:   6    -0.155313434005E+04    0.57301E-05   -0.81727E-06  6312   0.646E-03
  13 F= -.15531343E+04 E0= -.15531496E+04  d E =-.360072E-03
       N       E                     dE             d eps       ncg     rms          rms(c)
DAV:   1    -0.155313456231E+04   -0.21653E-03   -0.15655E-02 11312   0.169E-01    0.210E-02
DAV:   2    -0.155313458478E+04   -0.22464E-04   -0.18445E-04 16464   0.177E-02    0.169E-02
DAV:   3    -0.155313457744E+04    0.73329E-05   -0.34633E-05  8857   0.110E-02    0.115E-02
DAV:   4    -0.155313458470E+04   -0.72556E-05   -0.18725E-05  6344   0.729E-03    0.531E-03
DAV:   5    -0.155313458900E+04   -0.42974E-05   -0.72486E-06  6208   0.551E-03
  14 F= -.15531346E+04 E0= -.15531499E+04  d E =-.248946E-03
       N       E                     dE             d eps       ncg     rms          rms(c)
DAV:   1    -0.155313480920E+04   -0.22450E-03   -0.16455E-02 11312   0.171E-01    0.206E-02
DAV:   2    -0.155313482494E+04   -0.15742E-04   -0.25604E-04 17672   0.246E-02    0.224E-02
DAV:   3    -0.155313479574E+04    0.29198E-04   -0.94044E-05 13864   0.165E-02    0.112E-02
DAV:   4    -0.155313478909E+04    0.66509E-05   -0.16395E-05  6520   0.702E-03    0.734E-03
DAV:   5    -0.155313478377E+04    0.53163E-05   -0.91160E-06  6208   0.599E-03
  15 F= -.15531348E+04 E0= -.15531500E+04  d E =-.194777E-03
       N       E                     dE             d eps       ncg     rms          rms(c)
DAV:   1    -0.155313493920E+04   -0.15011E-03   -0.15872E-02 11312   0.167E-01    0.164E-02
DAV:   2    -0.155313496050E+04   -0.21297E-04   -0.17060E-04 16376   0.174E-02    0.155E-02
DAV:   3    -0.155313495170E+04    0.88013E-05   -0.26404E-05  8008   0.103E-02    0.101E-02
DAV:   4    -0.155313495483E+04   -0.31310E-05   -0.16493E-05  6216   0.623E-03    0.493E-03
DAV:   5    -0.155313495763E+04   -0.28038E-05   -0.72406E-06  6184   0.558E-03
  16 F= -.15531350E+04 E0= -.15531502E+04  d E =-.173857E-03
       N       E                     dE             d eps       ncg     rms          rms(c)
DAV:   1    -0.155313506968E+04   -0.11485E-03   -0.75078E-03 11312   0.116E-01    0.151E-02
DAV:   2    -0.155313506677E+04    0.29090E-05   -0.10590E-04 14584   0.164E-02    0.142E-02
DAV:   3    -0.155313505449E+04    0.12284E-04   -0.36889E-05  8904   0.117E-02    0.774E-03
DAV:   4    -0.155313504954E+04    0.49474E-05   -0.11169E-05  6096   0.573E-03    0.490E-03
DAV:   5    -0.155313504517E+04    0.43745E-05   -0.59449E-06  5992   0.471E-03
  17 F= -.15531350E+04 E0= -.15531503E+04  d E =-.875350E-04
       N       E                     dE             d eps       ncg     rms          rms(c)
DAV:   1    -0.155313512039E+04   -0.70846E-04   -0.54161E-03 11312   0.982E-02    0.108E-02
DAV:   2    -0.155313512910E+04   -0.87141E-05   -0.44997E-05  9888   0.989E-03    0.873E-03
DAV:   3    -0.155313512850E+04    0.59687E-06   -0.12575E-05  6568   0.662E-03    0.619E-03
DAV:   4    -0.155313513302E+04   -0.45185E-05   -0.68933E-06  5880   0.422E-03    0.252E-03
DAV:   5    -0.155313513495E+04   -0.19250E-05   -0.31692E-06  5880   0.332E-03
  18 F= -.15531351E+04 E0= -.15531504E+04  d E =-.897814E-04
       N       E                     dE             d eps       ncg     rms          rms(c)
DAV:   1    -0.155313522275E+04   -0.89726E-04   -0.77753E-03 11312   0.116E-01    0.115E-02
DAV:   2    -0.155313522438E+04   -0.16281E-05   -0.81607E-05 13368   0.124E-02    0.103E-02
DAV:   3    -0.155313521993E+04    0.44425E-05   -0.15425E-05  6912   0.776E-03    0.704E-03
DAV:   4    -0.155313521692E+04    0.30183E-05   -0.70396E-06  5904   0.433E-03    0.401E-03
DAV:   5    -0.155313521455E+04    0.23653E-05   -0.39242E-06  5880   0.385E-03
  19 F= -.15531352E+04 E0= -.15531504E+04  d E =-.796027E-04
       N       E                     dE             d eps       ncg     rms          rms(c)
DAV:   1    -0.155313526275E+04   -0.45835E-04   -0.36084E-03 11312   0.798E-02    0.798E-03
DAV:   2    -0.155313526838E+04   -0.56333E-05   -0.22596E-05  7296   0.782E-03    0.637E-03
DAV:   3    -0.155313526872E+04   -0.33616E-06   -0.86315E-06  6168   0.534E-03    0.454E-03
DAV:   4    -0.155313527240E+04   -0.36811E-05   -0.54288E-06  5880   0.374E-03    0.168E-03
DAV:   5    -0.155313527362E+04   -0.12145E-05   -0.27549E-06  5880   0.300E-03
  20 F= -.15531353E+04 E0= -.15531505E+04  d E =-.590655E-04
       N       E                     dE             d eps       ncg     rms          rms(c)
DAV:   1    -0.155313532968E+04   -0.57279E-04   -0.40606E-03 11312   0.844E-02    0.916E-03
DAV:   2    -0.155313532547E+04    0.42142E-05   -0.33217E-05  8704   0.890E-03    0.674E-03
DAV:   3    -0.155313532397E+04    0.14975E-05   -0.10880E-05  6184   0.640E-03    0.506E-03
DAV:   4    -0.155313532090E+04    0.30642E-05   -0.53199E-06  5880   0.403E-03    0.276E-03
DAV:   5    -0.155313531900E+04    0.19024E-05   -0.32026E-06  5880   0.319E-03
  21 F= -.15531353E+04 E0= -.15531506E+04  d E =-.453866E-04
       N       E                     dE             d eps       ncg     rms          rms(c)
DAV:   1    -0.155313535232E+04   -0.31412E-04   -0.22806E-03 11312   0.632E-02    0.656E-03
DAV:   2    -0.155313535635E+04   -0.40331E-05   -0.15746E-05  6200   0.608E-03    0.480E-03
DAV:   3    -0.155313535736E+04   -0.10061E-05   -0.61786E-06  5896   0.417E-03    0.365E-03
DAV:   4    -0.155313535988E+04   -0.25229E-05   -0.38459E-06  5859   0.317E-03    0.152E-03
DAV:   5    -0.155313536098E+04   -0.11050E-05   -0.21173E-06  5859   0.250E-03
  22 F= -.15531354E+04 E0= -.15531506E+04  d E =-.419814E-04
       N       E                     dE             d eps       ncg     rms          rms(c)
DAV:   1    -0.155313540494E+04   -0.45062E-04   -0.36393E-03 11312   0.794E-02    0.752E-03
DAV:   2    -0.155313540336E+04    0.15768E-05   -0.24218E-05  8048   0.766E-03    0.573E-03
DAV:   3    -0.155313540288E+04    0.48816E-06   -0.88724E-06  6056   0.520E-03    0.440E-03
DAV:   4    -0.155313540092E+04    0.19605E-05   -0.51056E-06  5859   0.367E-03    0.206E-03
DAV:   5    -0.155313540015E+04    0.76049E-06   -0.29613E-06  5859   0.298E-03
  23 F= -.15531354E+04 E0= -.15531506E+04  d E =-.391707E-04
       N       E                     dE             d eps       ncg     rms          rms(c)
DAV:   1    -0.155313542789E+04   -0.26975E-04   -0.23950E-03 11312   0.647E-02    0.639E-03
DAV:   2    -0.155313543177E+04   -0.38838E-05   -0.16363E-05  6224   0.607E-03    0.457E-03
DAV:   3    -0.155313543321E+04   -0.14387E-05   -0.65151E-06  5896   0.405E-03    0.339E-03
DAV:   4    -0.155313543535E+04   -0.21362E-05   -0.38748E-06  5859   0.323E-03    0.147E-03
DAV:   5    -0.155313543639E+04   -0.10400E-05   -0.22409E-06  5859   0.249E-03
  24 F= -.15531354E+04 E0= -.15531507E+04  d E =-.362339E-04
       N       E                     dE             d eps       ncg     rms          rms(c)
DAV:   1    -0.155313546140E+04   -0.26055E-04   -0.12444E-03 11312   0.467E-02    0.530E-03
DAV:   2    -0.155313545837E+04    0.30351E-05   -0.99669E-06  6094   0.513E-03    0.377E-03
DAV:   3    -0.155313545766E+04    0.70462E-06   -0.41848E-06  5870   0.393E-03    0.286E-03
DAV:   4    -0.155313545589E+04    0.17788E-05   -0.23080E-06  5817   0.255E-03    0.154E-03
DAV:   5    -0.155313545486E+04    0.10271E-05   -0.14007E-06  5817   0.209E-03
  25 F= -.15531355E+04 E0= -.15531507E+04  d E =-.184700E-04
       N       E                     dE             d eps       ncg     rms          rms(c)
DAV:   1    -0.155313548007E+04   -0.24189E-04   -0.21904E-03 11312   0.616E-02    0.555E-03
DAV:   2    -0.155313548203E+04   -0.19519E-05   -0.13422E-05  7024   0.551E-03    0.420E-03
DAV:   3    -0.155313548268E+04   -0.65155E-06   -0.51309E-06  5896   0.347E-03    0.316E-03
DAV:   4    -0.155313548388E+04   -0.12053E-05   -0.33637E-06  5817   0.290E-03    0.896E-04
DAV:   5    -0.155313548416E+04   -0.27776E-06   -0.17225E-06  5817   0.218E-03
  26 F= -.15531355E+04 E0= -.15531507E+04  d E =-.293029E-04
       N       E                     dE             d eps       ncg     rms          rms(c)
DAV:   1    -0.155313552081E+04   -0.36923E-04   -0.47343E-03 11284   0.906E-02    0.835E-03
DAV:   2    -0.155313551910E+04    0.17048E-05   -0.34779E-05  9072   0.826E-03    0.616E-03
DAV:   3    -0.155313551834E+04    0.76224E-06   -0.91456E-06  5985   0.512E-03    0.468E-03
DAV:   4    -0.155313551606E+04    0.22838E-05   -0.48270E-06  5880   0.384E-03    0.213E-03
DAV:   5    -0.155313551507E+04    0.98730E-06   -0.28012E-06  5873   0.288E-03
  27 F= -.15531355E+04 E0= -.15531507E+04  d E =-.309067E-04
       N       E                     dE             d eps       ncg     rms          rms(c)
DAV:   1    -0.155313551317E+04    0.28861E-05   -0.64354E-05 10910   0.133E-02    0.404E-03
DAV:   2    -0.155313551651E+04   -0.33442E-05   -0.21409E-06  5817   0.271E-03    0.224E-03
DAV:   3    -0.155313551741E+04   -0.89221E-06   -0.10248E-06  5817   0.244E-03    0.178E-03
DAV:   4    -0.155313551884E+04   -0.14339E-05   -0.47366E-07  5817   0.138E-03    0.841E-04
DAV:   5    -0.155313552003E+04   -0.11909E-05   -0.27155E-07  5817   0.858E-04
  28 F= -.15531355E+04 E0= -.15531507E+04  d E =-.496247E-05
       N       E                     dE             d eps       ncg     rms          rms(c)
DAV:   1    -0.155313554355E+04   -0.24708E-04   -0.22169E-03 11298   0.619E-02    0.532E-03
DAV:   2    -0.155313554355E+04   -0.55679E-08   -0.11728E-05  5889   0.520E-03    0.399E-03
DAV:   3    -0.155313554351E+04    0.43232E-07   -0.42151E-06  5810   0.307E-03    0.287E-03
DAV:   4    -0.155313554297E+04    0.53804E-06   -0.26053E-06  5817   0.261E-03    0.813E-04
DAV:   5    -0.155313554301E+04   -0.40796E-07   -0.13279E-06  5803   0.184E-03
  29 F= -.15531355E+04 E0= -.15531508E+04  d E =-.229822E-04
       N       E                     dE             d eps       ncg     rms          rms(c)
DAV:   1    -0.155313560223E+04   -0.59260E-04   -0.35616E-02 11200   0.248E-01    0.210E-02
DAV:   2    -0.155313562353E+04   -0.21294E-04   -0.30787E-04 16544   0.206E-02    0.164E-02
DAV:   3    -0.155313562048E+04    0.30437E-05   -0.16583E-05  7195   0.735E-03    0.103E-02
DAV:   4    -0.155313561830E+04    0.21841E-05   -0.12819E-05  6784   0.753E-03    0.359E-03
DAV:   5    -0.155313561790E+04    0.40150E-06   -0.42224E-06  5937   0.451E-03
  30 F= -.15531356E+04 E0= -.15531508E+04  d E =-.748836E-04
       N       E                     dE             d eps       ncg     rms          rms(c)
DAV:   1    -0.155313559156E+04    0.26737E-04   -0.85834E-03 11228   0.123E-01    0.122E-02
DAV:   2    -0.155313558697E+04    0.45904E-05   -0.59539E-05 11520   0.102E-02    0.887E-03
DAV:   3    -0.155313558431E+04    0.26571E-05   -0.90473E-06  5859   0.551E-03    0.684E-03
DAV:   4    -0.155313557870E+04    0.56122E-05   -0.51136E-06  5852   0.427E-03    0.245E-03
DAV:   5    -0.155313557708E+04    0.16236E-05   -0.22621E-06  5817   0.300E-03
  31 F= -.15531356E+04 E0= -.15531508E+04  d E =0.408189E-04
       N       E                     dE             d eps       ncg     rms          rms(c)
DAV:   1    -0.155313560731E+04   -0.28605E-04   -0.76256E-03 11228   0.115E-01    0.102E-02
DAV:   2    -0.155313561172E+04   -0.44186E-05   -0.47979E-05 10488   0.938E-03    0.775E-03
DAV:   3    -0.155313561233E+04   -0.60975E-06   -0.78855E-06  5845   0.490E-03    0.560E-03
DAV:   4    -0.155313561352E+04   -0.11847E-05   -0.49054E-06  5880   0.407E-03    0.169E-03
DAV:   5    -0.155313561381E+04   -0.29561E-06   -0.18627E-06  5852   0.268E-03
  32 F= -.15531356E+04 E0= -.15531508E+04  d E =-.367370E-04
       N       E                     dE             d eps       ncg     rms          rms(c)
DAV:   1    -0.155313563031E+04   -0.16791E-04   -0.40895E-03 11242   0.840E-02    0.701E-03
DAV:   2    -0.155313563072E+04   -0.41236E-06   -0.23421E-05  7424   0.720E-03    0.533E-03
DAV:   3    -0.155313563082E+04   -0.97863E-07   -0.84522E-06  5873   0.432E-03    0.389E-03
DAV:   4    -0.155313562994E+04    0.88398E-06   -0.51882E-06  5817   0.361E-03    0.100E-03
DAV:   5    -0.155313563007E+04   -0.13467E-06   -0.26514E-06  5817   0.259E-03
  33 F= -.15531356E+04 E0= -.15531509E+04  d E =-.162568E-04
       N       E                     dE             d eps       ncg     rms          rms(c)
DAV:   1    -0.155313562731E+04    0.26281E-05   -0.11496E-04 11080   0.169E-02    0.466E-03
DAV:   2    -0.155313563102E+04   -0.37093E-05   -0.32100E-06  5796   0.307E-03    0.237E-03
DAV:   3    -0.155313563235E+04   -0.13328E-05   -0.16215E-06  5796   0.285E-03    0.199E-03
DAV:   4    -0.155313563378E+04   -0.14295E-05   -0.71850E-07  5796   0.173E-03    0.977E-04
DAV:   5    -0.155313563508E+04   -0.13005E-05   -0.44522E-07  5796   0.110E-03
  34 F= -.15531356E+04 E0= -.15531509E+04  d E =-.500921E-05
       N       E                     dE             d eps       ncg     rms          rms(c)
DAV:   1    -0.155313564467E+04   -0.10889E-04   -0.32407E-04 11264   0.244E-02    0.352E-03
DAV:   2    -0.155313564165E+04    0.30226E-05   -0.26821E-06  5796   0.262E-03    0.210E-03
DAV:   3    -0.155313564073E+04    0.91964E-06   -0.11432E-06  5796   0.202E-03    0.166E-03
DAV:   4    -0.155313563960E+04    0.11276E-05   -0.56590E-07  5796   0.136E-03    0.912E-04
DAV:   5    -0.155313563866E+04    0.94014E-06   -0.35251E-07  5796   0.954E-04
  35 F= -.15531356E+04 E0= -.15531509E+04  d E =-.357852E-05
       N       E                     dE             d eps       ncg     rms          rms(c)
DAV:   1    -0.155313564386E+04   -0.42615E-05   -0.57658E-04 11284   0.315E-02    0.280E-03
DAV:   2    -0.155313564384E+04    0.23509E-07   -0.33873E-06  5796   0.274E-03    0.210E-03
DAV:   3    -0.155313564381E+04    0.25935E-07   -0.13537E-06  5789   0.169E-03    0.133E-03
DAV:   4    -0.155313564370E+04    0.11294E-06   -0.80192E-07  5796   0.145E-03    0.427E-04
DAV:   5    -0.155313564373E+04   -0.29318E-07   -0.42850E-07  5796   0.102E-03
  36 F= -.15531356E+04 E0= -.15531509E+04  d E =-.506863E-05
       N       E                     dE             d eps       ncg     rms          rms(c)
DAV:   1    -0.155313565695E+04   -0.13251E-04   -0.88723E-03 11200   0.124E-01    0.105E-02
DAV:   2    -0.155313566291E+04   -0.59614E-05   -0.73404E-05 13328   0.103E-02    0.823E-03
DAV:   3    -0.155313566301E+04   -0.10084E-06   -0.69173E-06  5979   0.459E-03    0.531E-03
DAV:   4    -0.155313566320E+04   -0.18820E-06   -0.39516E-06  5880   0.397E-03    0.165E-03
DAV:   5    -0.155313566321E+04   -0.92678E-08   -0.13759E-06  5880   0.232E-03
  37 F= -.15531357E+04 E0= -.15531509E+04  d E =-.194818E-04
       N       E                     dE             d eps       ncg     rms          rms(c)
DAV:   1    -0.155313565605E+04    0.71467E-05   -0.33544E-03 11242   0.764E-02    0.717E-03
DAV:   2    -0.155313565335E+04    0.27078E-05   -0.15875E-05  6361   0.625E-03    0.516E-03
DAV:   3    -0.155313565234E+04    0.10052E-05   -0.53878E-06  5803   0.367E-03    0.390E-03
DAV:   4    -0.155313564968E+04    0.26594E-05   -0.33559E-06  5817   0.303E-03    0.947E-04
DAV:   5    -0.155313564952E+04    0.15645E-06   -0.15483E-06  5817   0.188E-03
  38 F= -.15531356E+04 E0= -.15531509E+04  d E =0.136848E-04
       N       E                     dE             d eps       ncg     rms          rms(c)
DAV:   1    -0.155313565793E+04   -0.82479E-05   -0.22292E-03 11242   0.623E-02    0.529E-03
DAV:   2    -0.155313565841E+04   -0.47808E-06   -0.94925E-06  5820   0.483E-03    0.392E-03
DAV:   3    -0.155313565854E+04   -0.13076E-06   -0.29410E-06  5775   0.260E-03    0.277E-03
DAV:   4    -0.155313565861E+04   -0.68300E-07   -0.19241E-06  5796   0.233E-03    0.768E-04
DAV:   5    -0.155313565865E+04   -0.47565E-07   -0.82578E-07  5796   0.143E-03
  39 F= -.15531357E+04 E0= -.15531509E+04  d E =-.912910E-05
       N       E                     dE             d eps       ncg     rms          rms(c)
DAV:   1    -0.155313566368E+04   -0.50731E-05   -0.33947E-03 11214   0.766E-02    0.655E-03
DAV:   2    -0.155313566613E+04   -0.24541E-05   -0.18825E-05  7080   0.649E-03    0.489E-03
DAV:   3    -0.155313566727E+04   -0.11411E-05   -0.71736E-06  5866   0.389E-03    0.321E-03
DAV:   4    -0.155313566841E+04   -0.11376E-05   -0.41415E-06  5817   0.329E-03    0.779E-04
DAV:   5    -0.155313566855E+04   -0.14302E-06   -0.21148E-06  5817   0.220E-03
  40 F= -.15531357E+04 E0= -.15531509E+04  d E =-.990126E-05
