       N       E                     dE             d eps       ncg     rms          rms(c)
DAV:   1     0.271915378531E+04    0.27192E+04   -0.31600E+05 12500   0.145E+03
DAV:   2    -0.118605572714E+04   -0.39052E+04   -0.37344E+04 14226   0.344E+02
DAV:   3    -0.170429264366E+04   -0.51824E+03   -0.49348E+03 19032   0.834E+01
DAV:   4    -0.173041007954E+04   -0.26117E+02   -0.25381E+02 17560   0.188E+01
DAV:   5    -0.173148319447E+04   -0.10731E+01   -0.10564E+01 19600   0.384E+00    0.467E+01
DAV:   6    -0.167196740734E+04    0.59516E+02   -0.13696E+02 18168   0.165E+01    0.245E+01
DAV:   7    -0.165648368229E+04    0.15484E+02   -0.87682E+01 18592   0.159E+01    0.152E+01
DAV:   8    -0.164568153801E+04    0.10802E+02   -0.46748E+01 17528   0.121E+01    0.414E+00
DAV:   9    -0.164534765956E+04    0.33388E+00   -0.12652E+01 17656   0.570E+00    0.212E+00
DAV:  10    -0.164534072311E+04    0.69365E-02   -0.16921E+00 15920   0.192E+00    0.147E+00
DAV:  11    -0.164528993248E+04    0.50791E-01   -0.39794E-01 16784   0.841E-01    0.670E-01
DAV:  12    -0.164527857295E+04    0.11360E-01   -0.69275E-02 17376   0.430E-01    0.312E-01
DAV:  13    -0.164527564506E+04    0.29279E-02   -0.18164E-02 17712   0.267E-01    0.132E-01
DAV:  14    -0.164527552615E+04    0.11892E-03   -0.62258E-03 16040   0.114E-01    0.566E-02
DAV:  15    -0.164527557922E+04   -0.53074E-04   -0.10826E-03 15592   0.506E-02    0.278E-02
DAV:  16    -0.164527558275E+04   -0.35316E-05   -0.20644E-04 16392   0.241E-02    0.157E-02
DAV:  17    -0.164527557229E+04    0.10461E-04   -0.54734E-05 12352   0.141E-02    0.878E-03
DAV:  18    -0.164527556518E+04    0.71069E-05   -0.24258E-05  8600   0.795E-03
   1 F= -.16452756E+04 E0= -.16452768E+04  d E =-.164528E+04
       N       E                     dE             d eps       ncg     rms          rms(c)
DAV:   1    -0.164596836381E+04   -0.69279E+00   -0.17448E+02 12460   0.165E+01    0.258E+00
DAV:   2    -0.164592070197E+04    0.47662E-01   -0.33817E+00 17136   0.269E+00    0.146E+00
DAV:   3    -0.164586098334E+04    0.59719E-01   -0.61148E-01 17248   0.127E+00    0.104E+00
DAV:   4    -0.164583353042E+04    0.27453E-01   -0.13914E-01 17304   0.713E-01    0.555E-01
DAV:   5    -0.164582517463E+04    0.83558E-02   -0.73593E-02 15680   0.464E-01    0.176E-01
DAV:   6    -0.164582532629E+04   -0.15165E-03   -0.12700E-02 16200   0.172E-01    0.122E-01
DAV:   7    -0.164582514188E+04    0.18441E-03   -0.25713E-03 15800   0.696E-02    0.657E-02
DAV:   8    -0.164582517929E+04   -0.37410E-04   -0.88780E-04 15504   0.463E-02    0.286E-02
DAV:   9    -0.164582514714E+04    0.32146E-04   -0.16896E-04 15952   0.264E-02    0.145E-02
DAV:  10    -0.164582514020E+04    0.69432E-05   -0.73196E-05 14056   0.108E-02
   2 F= -.16458251E+04 E0= -.16458326E+04  d E =-.549575E+00
       N       E                     dE             d eps       ncg     rms          rms(c)
DAV:   1    -0.164607648393E+04   -0.25134E+00   -0.17035E+01 12460   0.634E+00    0.206E+00
DAV:   2    -0.164588079044E+04    0.19569E+00   -0.32632E-01 14696   0.841E-01    0.996E-01
DAV:   3    -0.164583038479E+04    0.50406E-01   -0.13632E-01 14747   0.577E-01    0.383E-01
DAV:   4    -0.164582276115E+04    0.76236E-02   -0.42519E-02 15312   0.407E-01    0.120E-01
DAV:   5    -0.164582256593E+04    0.19521E-03   -0.12156E-02 15395   0.205E-01    0.619E-02
DAV:   6    -0.164582288701E+04   -0.32108E-03   -0.23144E-03 17168   0.659E-02    0.452E-02
DAV:   7    -0.164582299919E+04   -0.11218E-03   -0.33031E-04 16384   0.249E-02    0.243E-02
DAV:   8    -0.164582308667E+04   -0.87487E-04   -0.10534E-04 14448   0.155E-02    0.111E-02
DAV:   9    -0.164582310652E+04   -0.19851E-04   -0.30058E-05  9472   0.956E-03    0.518E-03
DAV:  10    -0.164582311661E+04   -0.10083E-04   -0.17626E-05  7632   0.591E-03    0.339E-03
DAV:  11    -0.164582311592E+04    0.69141E-06   -0.45669E-06  7288   0.471E-03
   3 F= -.16458231E+04 E0= -.16458243E+04  d E =0.202428E-02
       N       E                     dE             d eps       ncg     rms          rms(c)
DAV:   1    -0.164608771865E+04   -0.26460E+00   -0.75545E+00 12460   0.398E+00    0.113E+00
DAV:   2    -0.164603269669E+04    0.55022E-01   -0.11994E-01 15760   0.590E-01    0.588E-01
DAV:   3    -0.164601856059E+04    0.14136E-01   -0.58581E-02 16144   0.415E-01    0.349E-01
DAV:   4    -0.164601075002E+04    0.78106E-02   -0.30426E-02 16048   0.350E-01    0.754E-02
DAV:   5    -0.164601081558E+04   -0.65569E-04   -0.71248E-03 15200   0.140E-01    0.528E-02
DAV:   6    -0.164601089483E+04   -0.79245E-04   -0.99524E-04 16344   0.452E-02    0.346E-02
DAV:   7    -0.164601092038E+04   -0.25554E-04   -0.18397E-04 16328   0.187E-02    0.193E-02
DAV:   8    -0.164601092935E+04   -0.89691E-05   -0.81415E-05 14632   0.139E-02
   4 F= -.16460109E+04 E0= -.16460157E+04  d E =-.187813E+00
       N       E                     dE             d eps       ncg     rms          rms(c)
DAV:   1    -0.164601668938E+04   -0.57690E-02   -0.10640E+00 12500   0.129E+00    0.159E-01
DAV:   2    -0.164601722278E+04   -0.53340E-03   -0.15059E-02 17032   0.206E-01    0.103E-01
DAV:   3    -0.164601695158E+04    0.27120E-03   -0.28538E-03 17908   0.937E-02    0.765E-02
DAV:   4    -0.164601682194E+04    0.12964E-03   -0.66101E-04 17056   0.457E-02    0.340E-02
DAV:   5    -0.164601681629E+04    0.56453E-05   -0.27957E-04 14640   0.245E-02    0.111E-02
DAV:   6    -0.164601681207E+04    0.42277E-05   -0.30004E-05  9408   0.925E-03
   5 F= -.16460168E+04 E0= -.16460216E+04  d E =-.588271E-02
       N       E                     dE             d eps       ncg     rms          rms(c)
DAV:   1    -0.164601791766E+04   -0.11014E-02   -0.21534E-01 12555   0.582E-01    0.743E-02
DAV:   2    -0.164601800491E+04   -0.87248E-04   -0.27666E-03 16320   0.969E-02    0.468E-02
DAV:   3    -0.164601795932E+04    0.45592E-04   -0.56861E-04 18500   0.410E-02    0.352E-02
DAV:   4    -0.164601793906E+04    0.20259E-04   -0.15100E-04 16976   0.214E-02    0.154E-02
DAV:   5    -0.164601794450E+04   -0.54395E-05   -0.55678E-05 13128   0.108E-02
   6 F= -.16460179E+04 E0= -.16460226E+04  d E =-.113243E-02
       N       E                     dE             d eps       ncg     rms          rms(c)
DAV:   1    -0.164601832465E+04   -0.38559E-03   -0.29931E-02 12580   0.241E-01    0.643E-02
DAV:   2    -0.164601809982E+04    0.22483E-03   -0.51859E-04 15400   0.407E-02    0.332E-02
DAV:   3    -0.164601803453E+04    0.65297E-04   -0.20172E-04 15864   0.260E-02    0.214E-02
DAV:   4    -0.164601797939E+04    0.55139E-04   -0.94564E-05 15304   0.196E-02    0.532E-03
DAV:   5    -0.164601797084E+04    0.85500E-05   -0.21045E-05  7336   0.787E-03
   7 F= -.16460180E+04 E0= -.16460229E+04  d E =-.263364E-04
       N       E                     dE             d eps       ncg     rms          rms(c)
DAV:   1    -0.164601834000E+04   -0.36061E-03   -0.17998E-02 12580   0.183E-01    0.433E-02
DAV:   2    -0.164601830828E+04    0.31718E-04   -0.20367E-04 15488   0.246E-02    0.232E-02
DAV:   3    -0.164601831129E+04   -0.30041E-05   -0.77963E-05 14904   0.151E-02    0.118E-02
DAV:   4    -0.164601831917E+04   -0.78841E-05   -0.30951E-05  9952   0.125E-02    0.283E-03
DAV:   5    -0.164601832287E+04   -0.36963E-05   -0.89473E-06  6992   0.538E-03
   8 F= -.16460183E+04 E0= -.16460231E+04  d E =-.352031E-03
       N       E                     dE             d eps       ncg     rms          rms(c)
DAV:   1    -0.164601840248E+04   -0.83312E-04   -0.96407E-03 12580   0.123E-01    0.156E-02
DAV:   2    -0.164601839932E+04    0.31615E-05   -0.10643E-04 15536   0.203E-02    0.105E-02
DAV:   3    -0.164601839356E+04    0.57608E-05   -0.18172E-05  9400   0.872E-03    0.781E-03
DAV:   4    -0.164601838636E+04    0.71991E-05   -0.12101E-05  6992   0.549E-03    0.157E-03
DAV:   5    -0.164601838632E+04    0.45946E-07   -0.30373E-06  6872   0.365E-03
   9 F= -.16460184E+04 E0= -.16460232E+04  d E =-.634481E-04
       N       E                     dE             d eps       ncg     rms          rms(c)
DAV:   1    -0.164601840635E+04   -0.19990E-04   -0.36366E-03 12580   0.763E-02    0.104E-02
DAV:   2    -0.164601841157E+04   -0.52191E-05   -0.28569E-05  9680   0.111E-02    0.671E-03
DAV:   3    -0.164601841308E+04   -0.15078E-05   -0.73356E-06  7248   0.670E-03    0.461E-03
DAV:   4    -0.164601841794E+04   -0.48660E-05   -0.57339E-06  6728   0.421E-03    0.903E-04
DAV:   5    -0.164601841808E+04   -0.13453E-06   -0.21062E-06  6680   0.298E-03
  10 F= -.16460184E+04 E0= -.16460232E+04  d E =-.317632E-04
       N       E                     dE             d eps       ncg     rms          rms(c)
DAV:   1    -0.164601843831E+04   -0.20370E-04   -0.51801E-04 12580   0.318E-02    0.862E-03
DAV:   2    -0.164601842767E+04    0.10646E-04   -0.66783E-06  6680   0.488E-03    0.453E-03
DAV:   3    -0.164601842279E+04    0.48739E-05   -0.32481E-06  6600   0.410E-03    0.243E-03
DAV:   4    -0.164601841877E+04    0.40292E-05   -0.20116E-06  6680   0.310E-03    0.573E-04
DAV:   5    -0.164601841818E+04    0.58680E-06   -0.83787E-07  6680   0.181E-03
  11 F= -.16460184E+04 E0= -.16460232E+04  d E =-.995656E-07
       N       E                     dE             d eps       ncg     rms          rms(c)
DAV:   1    -0.164601842641E+04   -0.76417E-05   -0.10530E-03 12580   0.409E-02    0.539E-03
DAV:   2    -0.164601842906E+04   -0.26549E-05   -0.73863E-06  6665   0.512E-03    0.350E-03
DAV:   3    -0.164601843037E+04   -0.13050E-05   -0.22744E-06  6665   0.322E-03    0.217E-03
DAV:   4    -0.164601843239E+04   -0.20192E-05   -0.15279E-06  6665   0.241E-03    0.460E-04
DAV:   5    -0.164601843248E+04   -0.89038E-07   -0.71353E-07  6652   0.164E-03
  12 F= -.16460184E+04 E0= -.16460232E+04  d E =-.142966E-04
       N       E                     dE             d eps       ncg     rms          rms(c)
DAV:   1    -0.164601844050E+04   -0.81131E-05   -0.81814E-04 12580   0.358E-02    0.412E-03
DAV:   2    -0.164601843922E+04    0.12766E-05   -0.56605E-06  6617   0.439E-03    0.284E-03
DAV:   3    -0.164601843866E+04    0.56703E-06   -0.18227E-06  6473   0.272E-03    0.194E-03
DAV:   4    -0.164601843742E+04    0.12386E-05   -0.12536E-06  6410   0.205E-03    0.340E-04
DAV:   5    -0.164601843753E+04   -0.11290E-06   -0.60900E-07  6410   0.148E-03
  13 F= -.16460184E+04 E0= -.16460232E+04  d E =-.505466E-05
       N       E                     dE             d eps       ncg     rms          rms(c)
DAV:   1    -0.164601843786E+04   -0.44619E-06   -0.19489E-04 12364   0.181E-02    0.339E-03
DAV:   2    -0.164601844025E+04   -0.23843E-05   -0.18941E-06  6410   0.225E-03    0.193E-03
DAV:   3    -0.164601844247E+04   -0.22277E-05   -0.93449E-07  6410   0.151E-03    0.526E-04
DAV:   4    -0.164601844320E+04   -0.72940E-06   -0.39309E-07  6410   0.107E-03    0.251E-04
DAV:   5    -0.164601844333E+04   -0.12551E-06   -0.20250E-07  6410   0.790E-04
  14 F= -.16460184E+04 E0= -.16460232E+04  d E =-.580019E-05
       N       E                     dE             d eps       ncg     rms          rms(c)
DAV:   1    -0.164601844840E+04   -0.51994E-05   -0.22427E-04 12372   0.190E-02    0.276E-03
DAV:   2    -0.164601844649E+04    0.19161E-05   -0.16716E-06  6410   0.227E-03    0.171E-03
DAV:   3    -0.164601844543E+04    0.10568E-05   -0.62588E-07  6410   0.149E-03    0.940E-04
DAV:   4    -0.164601844438E+04    0.10524E-05   -0.36509E-07  6410   0.119E-03    0.248E-04
DAV:   5    -0.164601844435E+04    0.33450E-07   -0.18753E-07  6410   0.811E-04
  15 F= -.16460184E+04 E0= -.16460232E+04  d E =-.101520E-05
       N       E                     dE             d eps       ncg     rms          rms(c)
DAV:   1    -0.164601844669E+04   -0.23092E-05   -0.33647E-04 12466   0.229E-02    0.247E-03
DAV:   2    -0.164601844731E+04   -0.62669E-06   -0.20729E-06  6410   0.245E-03    0.178E-03
DAV:   3    -0.164601844786E+04   -0.54165E-06   -0.77859E-07  6405   0.145E-03    0.532E-04
DAV:   4    -0.164601844813E+04   -0.27258E-06   -0.38501E-07  6410   0.116E-03    0.231E-04
DAV:   5    -0.164601844806E+04    0.65163E-07   -0.21567E-07  6405   0.812E-04
  16 F= -.16460184E+04 E0= -.16460232E+04  d E =-.371838E-05
       N       E                     dE             d eps       ncg     rms          rms(c)
DAV:   1    -0.164601845171E+04   -0.35834E-05   -0.24497E-04 12378   0.198E-02    0.275E-03
DAV:   2    -0.164601844984E+04    0.18754E-05   -0.17786E-06  6410   0.227E-03    0.173E-03
DAV:   3    -0.164601844857E+04    0.12657E-05   -0.68330E-07  6410   0.143E-03    0.785E-04
DAV:   4    -0.164601844776E+04    0.81403E-06   -0.35517E-07  6410   0.115E-03    0.254E-04
DAV:   5    -0.164601844773E+04    0.24262E-07   -0.18927E-07  6410   0.804E-04
  17 F= -.16460184E+04 E0= -.16460232E+04  d E =0.330789E-06
       N       E                     dE             d eps       ncg     rms          rms(c)
DAV:   1    -0.164601844699E+04    0.77071E-06   -0.22706E-05  7034   0.687E-03    0.167E-03
DAV:   2    -0.164601844855E+04   -0.15639E-05   -0.13700E-06  6539   0.224E-03    0.870E-04
DAV:   3    -0.164601844980E+04   -0.12451E-05   -0.26798E-07  6403   0.834E-04    0.433E-04
DAV:   4    -0.164601845037E+04   -0.57630E-06   -0.12196E-07  6395   0.769E-04    0.135E-04
DAV:   5    -0.164601845052E+04   -0.14805E-06   -0.64704E-08  6395   0.378E-04
  18 F= -.16460185E+04 E0= -.16460232E+04  d E =-.278695E-05
       N       E                     dE             d eps       ncg     rms          rms(c)
DAV:   1    -0.164601845220E+04   -0.18280E-05   -0.16910E-04 12328   0.162E-02    0.172E-03
DAV:   2    -0.164601845201E+04    0.18473E-06   -0.10383E-06  6395   0.167E-03    0.124E-03
DAV:   3    -0.164601845174E+04    0.27257E-06   -0.37982E-07  6390   0.917E-04    0.310E-04
DAV:   4    -0.164601845166E+04    0.77477E-07   -0.17368E-07  6380   0.689E-04    0.159E-04
DAV:   5    -0.164601845170E+04   -0.39431E-07   -0.94683E-08  6380   0.511E-04
  19 F= -.16460185E+04 E0= -.16460232E+04  d E =-.118459E-05
       N       E                     dE             d eps       ncg     rms          rms(c)
DAV:   1    -0.164601845264E+04   -0.97214E-06   -0.73164E-04 12560   0.338E-02    0.364E-03
DAV:   2    -0.164601845389E+04   -0.12493E-05   -0.41102E-06  6380   0.341E-03    0.258E-03
DAV:   3    -0.164601845519E+04   -0.13011E-05   -0.16417E-06  6380   0.187E-03    0.356E-04
DAV:   4    -0.164601845530E+04   -0.11324E-06   -0.63509E-07  6380   0.124E-03    0.227E-04
DAV:   5    -0.164601845529E+04    0.13644E-07   -0.34019E-07  6380   0.935E-04
  20 F= -.16460185E+04 E0= -.16460232E+04  d E =-.358274E-05
