       N       E                     dE             d eps       ncg     rms          rms(c)
DAV:   1     0.271911834713E+04    0.27191E+04   -0.31600E+05 12500   0.145E+03
DAV:   2    -0.118673677632E+04   -0.39059E+04   -0.37354E+04 14234   0.344E+02
DAV:   3    -0.170426932631E+04   -0.51753E+03   -0.49273E+03 19072   0.834E+01
DAV:   4    -0.173020491348E+04   -0.25936E+02   -0.25205E+02 17472   0.187E+01
DAV:   5    -0.173129387739E+04   -0.10890E+01   -0.10719E+01 19584   0.390E+00    0.467E+01
DAV:   6    -0.167192295585E+04    0.59371E+02   -0.13278E+02 18160   0.164E+01    0.245E+01
DAV:   7    -0.165669178528E+04    0.15231E+02   -0.88998E+01 18976   0.165E+01    0.153E+01
DAV:   8    -0.164562979824E+04    0.11062E+02   -0.47254E+01 17808   0.124E+01    0.405E+00
DAV:   9    -0.164534508047E+04    0.28472E+00   -0.12027E+01 17016   0.554E+00    0.211E+00
DAV:  10    -0.164535237140E+04   -0.72909E-02   -0.17062E+00 16552   0.185E+00    0.145E+00
DAV:  11    -0.164529860713E+04    0.53764E-01   -0.34624E-01 15824   0.808E-01    0.615E-01
DAV:  12    -0.164528982943E+04    0.87777E-02   -0.52222E-02 17320   0.365E-01    0.249E-01
DAV:  13    -0.164528819206E+04    0.16374E-02   -0.11398E-02 16288   0.208E-01    0.116E-01
DAV:  14    -0.164528809648E+04    0.95585E-04   -0.42194E-03 16056   0.961E-02    0.531E-02
DAV:  15    -0.164528814297E+04   -0.46492E-04   -0.94387E-04 14840   0.465E-02    0.214E-02
DAV:  16    -0.164528813773E+04    0.52417E-05   -0.14219E-04 15608   0.182E-02    0.879E-03
DAV:  17    -0.164528813014E+04    0.75815E-05   -0.27207E-05  9184   0.974E-03
   1 F= -.16452881E+04 E0= -.16452874E+04  d E =-.164529E+04
       N       E                     dE             d eps       ncg     rms          rms(c)
DAV:   1    -0.164593785927E+04   -0.64972E+00   -0.15864E+02 12460   0.158E+01    0.246E+00
DAV:   2    -0.164589241186E+04    0.45447E-01   -0.30591E+00 17304   0.258E+00    0.139E+00
DAV:   3    -0.164583533412E+04    0.57078E-01   -0.53870E-01 17296   0.124E+00    0.992E-01
DAV:   4    -0.164580793724E+04    0.27397E-01   -0.13039E-01 17120   0.691E-01    0.519E-01
DAV:   5    -0.164580056429E+04    0.73729E-02   -0.69485E-02 15648   0.436E-01    0.169E-01
DAV:   6    -0.164580067723E+04   -0.11294E-03   -0.11394E-02 16152   0.163E-01    0.117E-01
DAV:   7    -0.164580052265E+04    0.15458E-03   -0.24864E-03 15672   0.656E-02    0.599E-02
DAV:   8    -0.164580055312E+04   -0.30469E-04   -0.58139E-04 15040   0.365E-02    0.232E-02
DAV:   9    -0.164580053137E+04    0.21748E-04   -0.11351E-04 15328   0.199E-02    0.121E-02
DAV:  10    -0.164580052631E+04    0.50564E-05   -0.45920E-05 11104   0.962E-03
   2 F= -.16458005E+04 E0= -.16458053E+04  d E =-.512396E+00
       N       E                     dE             d eps       ncg     rms          rms(c)
DAV:   1    -0.164603916873E+04   -0.23864E+00   -0.15767E+01 12460   0.610E+00    0.198E+00
DAV:   2    -0.164585792029E+04    0.18125E+00   -0.29945E-01 14360   0.806E-01    0.959E-01
DAV:   3    -0.164581073414E+04    0.47186E-01   -0.12584E-01 14697   0.561E-01    0.353E-01
DAV:   4    -0.164580450581E+04    0.62283E-02   -0.38369E-02 15576   0.391E-01    0.113E-01
DAV:   5    -0.164580433194E+04    0.17387E-03   -0.10646E-02 15473   0.189E-01    0.589E-02
DAV:   6    -0.164580462527E+04   -0.29333E-03   -0.20038E-03 17200   0.604E-02    0.417E-02
DAV:   7    -0.164580474232E+04   -0.11705E-03   -0.28164E-04 15856   0.228E-02    0.210E-02
DAV:   8    -0.164580481417E+04   -0.71843E-04   -0.82768E-05 13928   0.129E-02    0.909E-03
DAV:   9    -0.164580483374E+04   -0.19575E-04   -0.25324E-05  8592   0.826E-03    0.395E-03
DAV:  10    -0.164580483935E+04   -0.56080E-05   -0.10078E-05  7480   0.511E-03
   3 F= -.16458048E+04 E0= -.16458044E+04  d E =-.431304E-02
       N       E                     dE             d eps       ncg     rms          rms(c)
DAV:   1    -0.164604892100E+04   -0.24409E+00   -0.71041E+00 12460   0.384E+00    0.108E+00
DAV:   2    -0.164599876768E+04    0.50153E-01   -0.11276E-01 15784   0.583E-01    0.564E-01
DAV:   3    -0.164598602538E+04    0.12742E-01   -0.54342E-02 16320   0.413E-01    0.343E-01
DAV:   4    -0.164597848128E+04    0.75441E-02   -0.29397E-02 16184   0.340E-01    0.679E-02
DAV:   5    -0.164597861976E+04   -0.13848E-03   -0.64140E-03 14872   0.130E-01    0.512E-02
DAV:   6    -0.164597868437E+04   -0.64604E-04   -0.86844E-04 16432   0.423E-02    0.334E-02
DAV:   7    -0.164597871467E+04   -0.30299E-04   -0.20036E-04 16904   0.181E-02    0.159E-02
DAV:   8    -0.164597871311E+04    0.15582E-05   -0.48907E-05 12344   0.112E-02
   4 F= -.16459787E+04 E0= -.16459812E+04  d E =-.173874E+00
       N       E                     dE             d eps       ncg     rms          rms(c)
DAV:   1    -0.164598444787E+04   -0.57332E-02   -0.99321E-01 12530   0.125E+00    0.149E-01
DAV:   2    -0.164598489296E+04   -0.44509E-03   -0.12933E-02 16480   0.204E-01    0.981E-02
DAV:   3    -0.164598462695E+04    0.26601E-03   -0.25310E-03 17852   0.887E-02    0.738E-02
DAV:   4    -0.164598450118E+04    0.12577E-03   -0.67174E-04 17184   0.453E-02    0.303E-02
DAV:   5    -0.164598449610E+04    0.50846E-05   -0.25298E-04 14680   0.231E-02    0.108E-02
DAV:   6    -0.164598449152E+04    0.45807E-05   -0.27127E-05  8736   0.842E-03
   5 F= -.16459845E+04 E0= -.16459870E+04  d E =-.577841E-02
       N       E                     dE             d eps       ncg     rms          rms(c)
DAV:   1    -0.164598568713E+04   -0.11910E-02   -0.22026E-01 12545   0.587E-01    0.666E-02
DAV:   2    -0.164598580154E+04   -0.11441E-03   -0.25937E-03 16032   0.101E-01    0.457E-02
DAV:   3    -0.164598573991E+04    0.61628E-04   -0.54380E-04 19140   0.413E-02    0.349E-02
DAV:   4    -0.164598570803E+04    0.31876E-04   -0.15898E-04 16784   0.214E-02    0.119E-02
DAV:   5    -0.164598570619E+04    0.18439E-05   -0.41060E-05 10616   0.976E-03
   6 F= -.16459857E+04 E0= -.16459882E+04  d E =-.121467E-02
       N       E                     dE             d eps       ncg     rms          rms(c)
DAV:   1    -0.164598607776E+04   -0.36973E-03   -0.98786E-02 12550   0.396E-01    0.492E-02
DAV:   2    -0.164598607073E+04    0.70308E-05   -0.11186E-03 15672   0.674E-02    0.322E-02
DAV:   3    -0.164598602780E+04    0.42926E-04   -0.25502E-04 18504   0.298E-02    0.241E-02
DAV:   4    -0.164598599318E+04    0.34627E-04   -0.76290E-05 14792   0.156E-02    0.702E-03
DAV:   5    -0.164598598823E+04    0.49508E-05   -0.15388E-05  7456   0.642E-03
   7 F= -.16459860E+04 E0= -.16459885E+04  d E =-.282035E-03
       N       E                     dE             d eps       ncg     rms          rms(c)
DAV:   1    -0.164598606621E+04   -0.73032E-04   -0.67863E-03 12696   0.127E-01    0.426E-02
DAV:   2    -0.164598602242E+04    0.43789E-04   -0.11713E-04 14912   0.182E-02    0.213E-02
DAV:   3    -0.164598602581E+04   -0.33943E-05   -0.67528E-05 14704   0.152E-02    0.111E-02
DAV:   4    -0.164598603470E+04   -0.88865E-05   -0.28722E-05  9832   0.123E-02    0.213E-03
DAV:   5    -0.164598603903E+04   -0.43338E-05   -0.93519E-06  6896   0.539E-03
   8 F= -.16459860E+04 E0= -.16459885E+04  d E =-.508089E-04
       N       E                     dE             d eps       ncg     rms          rms(c)
DAV:   1    -0.164598619733E+04   -0.16263E-03   -0.96986E-03 12631   0.128E-01    0.236E-02
DAV:   2    -0.164598616608E+04    0.31249E-04   -0.10651E-04 15176   0.189E-02    0.136E-02
DAV:   3    -0.164598615319E+04    0.12895E-04   -0.27898E-05  9990   0.106E-02    0.930E-03
DAV:   4    -0.164598613652E+04    0.16670E-04   -0.14777E-05  7128   0.731E-03    0.178E-03
DAV:   5    -0.164598613554E+04    0.97280E-06   -0.44579E-06  6800   0.439E-03
   9 F= -.16459861E+04 E0= -.16459886E+04  d E =-.965075E-04
       N       E                     dE             d eps       ncg     rms          rms(c)
DAV:   1    -0.164598616634E+04   -0.29825E-04   -0.41838E-03 12602   0.810E-02    0.896E-03
DAV:   2    -0.164598616674E+04   -0.40215E-06   -0.27826E-05  9416   0.983E-03    0.631E-03
DAV:   3    -0.164598616646E+04    0.28331E-06   -0.74444E-06  6926   0.573E-03    0.441E-03
DAV:   4    -0.164598616594E+04    0.51961E-06   -0.51281E-06  6680   0.418E-03    0.654E-04
DAV:   5    -0.164598616622E+04   -0.27930E-06   -0.22496E-06  6680   0.284E-03
  10 F= -.16459862E+04 E0= -.16459887E+04  d E =-.306761E-04
       N       E                     dE             d eps       ncg     rms          rms(c)
DAV:   1    -0.164598618936E+04   -0.23425E-04   -0.46609E-03 12570   0.853E-02    0.907E-03
DAV:   2    -0.164598619175E+04   -0.23824E-05   -0.32735E-05  9768   0.956E-03    0.653E-03
DAV:   3    -0.164598619201E+04   -0.26505E-06   -0.84511E-06  6832   0.538E-03    0.390E-03
DAV:   4    -0.164598619266E+04   -0.64971E-06   -0.50053E-06  6680   0.424E-03    0.736E-04
DAV:   5    -0.164598619278E+04   -0.11751E-06   -0.23053E-06  6672   0.286E-03
  11 F= -.16459862E+04 E0= -.16459887E+04  d E =-.265600E-04
       N       E                     dE             d eps       ncg     rms          rms(c)
DAV:   1    -0.164598622047E+04   -0.27809E-04   -0.84487E-03 12560   0.115E-01    0.132E-02
DAV:   2    -0.164598621765E+04    0.28211E-05   -0.74040E-05 15128   0.124E-02    0.939E-03
DAV:   3    -0.164598621354E+04    0.41046E-05   -0.95624E-06  7267   0.552E-03    0.592E-03
DAV:   4    -0.164598620823E+04    0.53167E-05   -0.54639E-06  6680   0.437E-03    0.975E-04
DAV:   5    -0.164598620853E+04   -0.30680E-06   -0.15639E-06  6672   0.263E-03
  12 F= -.16459862E+04 E0= -.16459887E+04  d E =-.157554E-04
       N       E                     dE             d eps       ncg     rms          rms(c)
DAV:   1    -0.164598620513E+04    0.31015E-05   -0.46173E-04 12570   0.289E-02    0.626E-03
DAV:   2    -0.164598620892E+04   -0.37942E-05   -0.40798E-06  6521   0.372E-03    0.343E-03
DAV:   3    -0.164598621143E+04   -0.25082E-05   -0.15141E-06  6484   0.275E-03    0.185E-03
DAV:   4    -0.164598621408E+04   -0.26478E-05   -0.97367E-07  6482   0.207E-03    0.412E-04
DAV:   5    -0.164598621439E+04   -0.31027E-06   -0.32921E-07  6482   0.121E-03
  13 F= -.16459862E+04 E0= -.16459887E+04  d E =-.585218E-05
       N       E                     dE             d eps       ncg     rms          rms(c)
DAV:   1    -0.164598622199E+04   -0.79186E-05   -0.97603E-04 12565   0.392E-02    0.413E-03
DAV:   2    -0.164598622157E+04    0.42802E-06   -0.52717E-06  6482   0.390E-03    0.292E-03
DAV:   3    -0.164598622075E+04    0.81517E-06   -0.16598E-06  6461   0.199E-03    0.737E-04
DAV:   4    -0.164598622061E+04    0.14603E-06   -0.70736E-07  6482   0.141E-03    0.280E-04
DAV:   5    -0.164598622067E+04   -0.69795E-07   -0.36371E-07  6482   0.109E-03
  14 F= -.16459862E+04 E0= -.16459887E+04  d E =-.628885E-05
       N       E                     dE             d eps       ncg     rms          rms(c)
DAV:   1    -0.164598622672E+04   -0.61185E-05   -0.10239E-03 12560   0.400E-02    0.430E-03
DAV:   2    -0.164598622631E+04    0.41816E-06   -0.62125E-06  6419   0.420E-03    0.305E-03
DAV:   3    -0.164598622555E+04    0.75663E-06   -0.22299E-06  6419   0.225E-03    0.676E-04
DAV:   4    -0.164598622548E+04    0.69640E-07   -0.10028E-06  6419   0.157E-03    0.266E-04
DAV:   5    -0.164598622556E+04   -0.78852E-07   -0.53748E-07  6419   0.125E-03
  15 F= -.16459862E+04 E0= -.16459887E+04  d E =-.488317E-05
       N       E                     dE             d eps       ncg     rms          rms(c)
DAV:   1    -0.164598622729E+04   -0.18103E-05   -0.79970E-04 12560   0.355E-02    0.420E-03
DAV:   2    -0.164598622920E+04   -0.19147E-05   -0.51533E-06  6434   0.383E-03    0.286E-03
DAV:   3    -0.164598623076E+04   -0.15515E-05   -0.19579E-06  6434   0.218E-03    0.916E-04
DAV:   4    -0.164598623149E+04   -0.73900E-06   -0.93327E-07  6404   0.168E-03    0.340E-04
DAV:   5    -0.164598623147E+04    0.28007E-07   -0.50523E-07  6380   0.126E-03
  16 F= -.16459862E+04 E0= -.16459887E+04  d E =-.590869E-05
       N       E                     dE             d eps       ncg     rms          rms(c)
DAV:   1    -0.164598623547E+04   -0.39759E-05   -0.82300E-05 12338   0.124E-02    0.296E-03
DAV:   2    -0.164598623259E+04    0.28772E-05   -0.11186E-06  6507   0.171E-03    0.157E-03
DAV:   3    -0.164598623056E+04    0.20369E-05   -0.55651E-07  6420   0.125E-03    0.562E-04
DAV:   4    -0.164598622975E+04    0.80282E-06   -0.25612E-07  6404   0.958E-04    0.210E-04
DAV:   5    -0.164598622959E+04    0.16099E-06   -0.13279E-07  6388   0.637E-04
  17 F= -.16459862E+04 E0= -.16459887E+04  d E =0.187405E-05
       N       E                     dE             d eps       ncg     rms          rms(c)
DAV:   1    -0.164598623023E+04   -0.47834E-06   -0.12198E-04 12312   0.140E-02    0.177E-03
DAV:   2    -0.164598623088E+04   -0.64353E-06   -0.92936E-07  6380   0.161E-03    0.116E-03
DAV:   3    -0.164598623146E+04   -0.58277E-06   -0.32821E-07  6380   0.913E-04    0.368E-04
DAV:   4    -0.164598623170E+04   -0.24398E-06   -0.15992E-07  6380   0.667E-04    0.128E-04
DAV:   5    -0.164598623169E+04    0.79112E-08   -0.87434E-08  6380   0.523E-04
  18 F= -.16459862E+04 E0= -.16459887E+04  d E =-.210170E-05
       N       E                     dE             d eps       ncg     rms          rms(c)
DAV:   1    -0.164598623248E+04   -0.77557E-06   -0.14824E-04 12312   0.152E-02    0.167E-03
DAV:   2    -0.164598623282E+04   -0.33819E-06   -0.99796E-07  6380   0.168E-03    0.117E-03
DAV:   3    -0.164598623310E+04   -0.27941E-06   -0.35068E-07  6380   0.910E-04    0.290E-04
DAV:   4    -0.164598623319E+04   -0.99497E-07   -0.16227E-07  6380   0.660E-04    0.113E-04
DAV:   5    -0.164598623319E+04    0.87402E-08   -0.89269E-08  6380   0.518E-04
  19 F= -.16459862E+04 E0= -.16459887E+04  d E =-.149183E-05
       N       E                     dE             d eps       ncg     rms          rms(c)
DAV:   1    -0.164598623455E+04   -0.13568E-05   -0.77231E-05 12136   0.111E-02    0.143E-03
DAV:   2    -0.164598623382E+04    0.73318E-06   -0.68792E-07  6380   0.136E-03    0.912E-04
DAV:   3    -0.164598623322E+04    0.59831E-06   -0.23550E-07  6380   0.760E-04    0.330E-04
DAV:   4    -0.164598623297E+04    0.25318E-06   -0.10995E-07  6380   0.575E-04    0.126E-04
DAV:   5    -0.164598623297E+04    0.33060E-09   -0.59182E-08  6380   0.428E-04
  20 F= -.16459862E+04 E0= -.16459887E+04  d E =0.219451E-06
