       N       E                     dE             d eps       ncg     rms          rms(c)
DAV:   1     0.219352392278E+04    0.21935E+04   -0.29004E+05 11620   0.143E+03
DAV:   2    -0.119532879934E+04   -0.33889E+04   -0.32522E+04 13462   0.295E+02
DAV:   3    -0.162613630176E+04   -0.43081E+03   -0.39772E+03 18008   0.818E+01
DAV:   4    -0.165081499378E+04   -0.24679E+02   -0.22991E+02 16288   0.171E+01
DAV:   5    -0.165189194527E+04   -0.10770E+01   -0.10574E+01 17816   0.422E+00    0.416E+01
DAV:   6    -0.161522597290E+04    0.36666E+02   -0.19030E+02 18256   0.198E+01    0.253E+01
DAV:   7    -0.159697999592E+04    0.18246E+02   -0.11865E+02 18952   0.180E+01    0.189E+01
DAV:   8    -0.158621876832E+04    0.10761E+02   -0.78944E+01 16760   0.121E+01    0.110E+01
DAV:   9    -0.158002264498E+04    0.61961E+01   -0.29857E+01 16416   0.872E+00    0.354E+00
DAV:  10    -0.157982224036E+04    0.20040E+00   -0.57817E+00 16832   0.362E+00    0.194E+00
DAV:  11    -0.157979225486E+04    0.29986E-01   -0.10783E+00 15712   0.155E+00    0.136E+00
DAV:  12    -0.157976049118E+04    0.31764E-01   -0.29414E-01 13600   0.774E-01    0.715E-01
DAV:  13    -0.157975085610E+04    0.96351E-02   -0.75860E-02 15216   0.494E-01    0.402E-01
DAV:  14    -0.157974487276E+04    0.59833E-02   -0.29335E-02 15920   0.302E-01    0.229E-01
DAV:  15    -0.157974284958E+04    0.20232E-02   -0.12141E-02 15120   0.156E-01    0.849E-02
DAV:  16    -0.157974288657E+04   -0.36990E-04   -0.30469E-03 16872   0.767E-02    0.493E-02
DAV:  17    -0.157974288506E+04    0.15087E-05   -0.66060E-04 16616   0.414E-02    0.352E-02
DAV:  18    -0.157974283992E+04    0.45142E-04   -0.24494E-04 16416   0.274E-02    0.171E-02
DAV:  19    -0.157974283328E+04    0.66371E-05   -0.72281E-05 12504   0.132E-02
   1 F= -.15797428E+04 E0= -.15797496E+04  d E =-.157974E+04
       N       E                     dE             d eps       ncg     rms          rms(c)
DAV:   1    -0.158428370793E+04   -0.45409E+01   -0.15413E+03 11620   0.593E+01    0.211E+01
DAV:   2    -0.156980922220E+04    0.14474E+02   -0.98922E+01 18200   0.145E+01    0.137E+01
DAV:   3    -0.156278023442E+04    0.70290E+01   -0.61510E+01 19240   0.117E+01    0.973E+00
DAV:   4    -0.155852146591E+04    0.42588E+01   -0.22540E+01 19840   0.677E+00    0.606E+00
DAV:   5    -0.155709763498E+04    0.14238E+01   -0.12947E+01 17216   0.472E+00    0.277E+00
DAV:   6    -0.155681092472E+04    0.28671E+00   -0.28024E+00 17552   0.248E+00    0.162E+00
DAV:   7    -0.155674737905E+04    0.63546E-01   -0.60011E-01 16712   0.113E+00    0.102E+00
DAV:   8    -0.155673809719E+04    0.92819E-02   -0.16961E-01 17640   0.485E-01    0.548E-01
DAV:   9    -0.155674390811E+04   -0.58109E-02   -0.92403E-02 17872   0.335E-01    0.333E-01
DAV:  10    -0.155674467979E+04   -0.77168E-03   -0.25131E-02 16808   0.250E-01    0.281E-01
DAV:  11    -0.155674144947E+04    0.32303E-02   -0.12020E-02 18352   0.155E-01    0.114E-01
DAV:  12    -0.155674139067E+04    0.58799E-04   -0.40965E-03 17896   0.732E-02    0.591E-02
DAV:  13    -0.155674154572E+04   -0.15505E-03   -0.89471E-04 17088   0.428E-02    0.426E-02
DAV:  14    -0.155674158801E+04   -0.42294E-04   -0.48529E-04 16720   0.317E-02    0.209E-02
DAV:  15    -0.155674158876E+04   -0.75129E-06   -0.12747E-04 13960   0.159E-02    0.130E-02
DAV:  16    -0.155674158797E+04    0.79170E-06   -0.37007E-05  8048   0.102E-02
   2 F= -.15567416E+04 E0= -.15567501E+04  d E =0.230012E+02
       N       E                     dE             d eps       ncg     rms          rms(c)
DAV:   1    -0.159867155764E+04   -0.41930E+02   -0.71889E+02 11620   0.448E+01    0.149E+01
DAV:   2    -0.158980268779E+04    0.88689E+01   -0.28331E+01 17216   0.890E+00    0.778E+00
DAV:   3    -0.158806719584E+04    0.17355E+01   -0.18238E+01 18168   0.676E+00    0.636E+00
DAV:   4    -0.158607548104E+04    0.19917E+01   -0.82628E+00 17544   0.451E+00    0.328E+00
DAV:   5    -0.158558158737E+04    0.49389E+00   -0.38845E+00 16240   0.300E+00    0.125E+00
DAV:   6    -0.158554594137E+04    0.35646E-01   -0.76006E-01 15728   0.141E+00    0.796E-01
DAV:   7    -0.158553817156E+04    0.77698E-02   -0.14608E-01 14952   0.609E-01    0.538E-01
DAV:   8    -0.158554146653E+04   -0.32950E-02   -0.42659E-02 15800   0.268E-01    0.283E-01
DAV:   9    -0.158555059972E+04   -0.91332E-02   -0.33135E-02 16384   0.220E-01    0.219E-01
DAV:  10    -0.158554985643E+04    0.74328E-03   -0.61808E-03 16104   0.143E-01    0.153E-01
DAV:  11    -0.158554899390E+04    0.86254E-03   -0.45331E-03 16856   0.900E-02    0.502E-02
DAV:  12    -0.158554931800E+04   -0.32411E-03   -0.14240E-03 16952   0.480E-02    0.449E-02
DAV:  13    -0.158554943533E+04   -0.11733E-03   -0.27053E-04 15664   0.251E-02    0.232E-02
DAV:  14    -0.158554943731E+04   -0.19807E-05   -0.10932E-04 13640   0.160E-02    0.789E-03
DAV:  15    -0.158554943663E+04    0.68320E-06   -0.26291E-05  7256   0.762E-03
   3 F= -.15855494E+04 E0= -.15855400E+04  d E =-.288078E+02
       N       E                     dE             d eps       ncg     rms          rms(c)
DAV:   1    -0.158570659882E+04   -0.15716E+00   -0.17402E+01 11620   0.548E+00    0.733E-01
DAV:   2    -0.158573414774E+04   -0.27549E-01   -0.32669E-01 17136   0.891E-01    0.732E-01
DAV:   3    -0.158570349720E+04    0.30651E-01   -0.12294E-01 17544   0.576E-01    0.373E-01
DAV:   4    -0.158570050470E+04    0.29925E-02   -0.22825E-02 16632   0.220E-01    0.238E-01
DAV:   5    -0.158569925566E+04    0.12490E-02   -0.11825E-02 16064   0.173E-01    0.131E-01
DAV:   6    -0.158569863111E+04    0.62456E-03   -0.47814E-03 15896   0.115E-01    0.615E-02
DAV:   7    -0.158569854496E+04    0.86151E-04   -0.12288E-03 15608   0.554E-02    0.366E-02
DAV:   8    -0.158569852301E+04    0.21943E-04   -0.29029E-04 16024   0.251E-02    0.228E-02
DAV:   9    -0.158569851679E+04    0.62293E-05   -0.90984E-05 14208   0.160E-02
   4 F= -.15856985E+04 E0= -.15856900E+04  d E =-.149080E+00
       N       E                     dE             d eps       ncg     rms          rms(c)
DAV:   1    -0.158573794410E+04   -0.39421E-01   -0.43952E+00 11620   0.274E+00    0.418E-01
DAV:   2    -0.158575397309E+04   -0.16029E-01   -0.12484E-01 17672   0.627E-01    0.535E-01
DAV:   3    -0.158573289035E+04    0.21083E-01   -0.64785E-02 17568   0.424E-01    0.192E-01
DAV:   4    -0.158573203203E+04    0.85832E-03   -0.75944E-03 16616   0.126E-01    0.135E-01
DAV:   5    -0.158573153983E+04    0.49220E-03   -0.33439E-03 16240   0.937E-02    0.816E-02
DAV:   6    -0.158573125005E+04    0.28978E-03   -0.17521E-03 15840   0.689E-02    0.394E-02
DAV:   7    -0.158573120276E+04    0.47284E-04   -0.44509E-04 14864   0.332E-02    0.226E-02
DAV:   8    -0.158573120387E+04   -0.11034E-05   -0.97147E-05 13840   0.149E-02
   5 F= -.15857312E+04 E0= -.15857226E+04  d E =-.326871E-01
       N       E                     dE             d eps       ncg     rms          rms(c)
DAV:   1    -0.158574331323E+04   -0.12110E-01   -0.69992E-01 11711   0.119E+00    0.268E-01
DAV:   2    -0.158574113686E+04    0.21764E-02   -0.11763E-02 16080   0.165E-01    0.154E-01
DAV:   3    -0.158574065863E+04    0.47823E-03   -0.60116E-03 17945   0.127E-01    0.123E-01
DAV:   4    -0.158573997277E+04    0.68586E-03   -0.25624E-03 16080   0.797E-02    0.575E-02
DAV:   5    -0.158573993234E+04    0.40427E-04   -0.11132E-03 15665   0.535E-02    0.274E-02
DAV:   6    -0.158573991550E+04    0.16840E-04   -0.25366E-04 15472   0.270E-02    0.169E-02
DAV:   7    -0.158573991066E+04    0.48395E-05   -0.49613E-05 10408   0.119E-02
   6 F= -.15857399E+04 E0= -.15857316E+04  d E =-.870679E-02
       N       E                     dE             d eps       ncg     rms          rms(c)
DAV:   1    -0.158575174296E+04   -0.11827E-01   -0.73778E-01 11662   0.114E+00    0.208E-01
DAV:   2    -0.158575431437E+04   -0.25714E-02   -0.23990E-02 18104   0.279E-01    0.244E-01
DAV:   3    -0.158574996499E+04    0.43494E-02   -0.13667E-02 17992   0.194E-01    0.914E-02
DAV:   4    -0.158574968829E+04    0.27671E-03   -0.17077E-03 16344   0.598E-02    0.600E-02
DAV:   5    -0.158574954761E+04    0.14067E-03   -0.77909E-04 16360   0.462E-02    0.361E-02
DAV:   6    -0.158574946772E+04    0.79890E-04   -0.36509E-04 16072   0.322E-02    0.167E-02
DAV:   7    -0.158574945881E+04    0.89136E-05   -0.86489E-05 13528   0.147E-02
   7 F= -.15857495E+04 E0= -.15857410E+04  d E =-.954815E-02
       N       E                     dE             d eps       ncg     rms          rms(c)
DAV:   1    -0.158575372150E+04   -0.42538E-02   -0.46575E-01 11648   0.885E-01    0.108E-01
DAV:   2    -0.158575513623E+04   -0.14147E-02   -0.87930E-03 16936   0.168E-01    0.146E-01
DAV:   3    -0.158575362168E+04    0.15145E-02   -0.42033E-03 16928   0.112E-01    0.561E-02
DAV:   4    -0.158575360392E+04    0.17759E-04   -0.61386E-04 16816   0.349E-02    0.366E-02
DAV:   5    -0.158575357520E+04    0.28720E-04   -0.26907E-04 15984   0.269E-02    0.165E-02
DAV:   6    -0.158575357016E+04    0.50459E-05   -0.97610E-05 14200   0.164E-02
   8 F= -.15857536E+04 E0= -.15857452E+04  d E =-.411135E-02
       N       E                     dE             d eps       ncg     rms          rms(c)
DAV:   1    -0.158575548620E+04   -0.19110E-02   -0.13620E-01 11760   0.498E-01    0.953E-02
DAV:   2    -0.158575575646E+04   -0.27026E-03   -0.40990E-03 18352   0.115E-01    0.101E-01
DAV:   3    -0.158575504720E+04    0.70926E-03   -0.23860E-03 18552   0.808E-02    0.423E-02
DAV:   4    -0.158575496398E+04    0.83225E-04   -0.34817E-04 16184   0.268E-02    0.262E-02
DAV:   5    -0.158575492348E+04    0.40499E-04   -0.16062E-04 15936   0.213E-02    0.158E-02
DAV:   6    -0.158575490081E+04    0.22664E-04   -0.66748E-05 13600   0.145E-02    0.677E-03
DAV:   7    -0.158575489951E+04    0.12978E-05   -0.14577E-05  6720   0.672E-03
   9 F= -.15857549E+04 E0= -.15857465E+04  d E =-.132936E-02
       N       E                     dE             d eps       ncg     rms          rms(c)
DAV:   1    -0.158575620838E+04   -0.13076E-02   -0.73682E-02 11718   0.364E-01    0.604E-02
DAV:   2    -0.158575624946E+04   -0.41082E-04   -0.10605E-03 16384   0.532E-02    0.474E-02
DAV:   3    -0.158575615209E+04    0.97367E-04   -0.48373E-04 17481   0.374E-02    0.293E-02
DAV:   4    -0.158575614416E+04    0.79282E-05   -0.12576E-04 14496   0.166E-02    0.141E-02
DAV:   5    -0.158575615357E+04   -0.94056E-05   -0.47032E-05 10432   0.127E-02
  10 F= -.15857562E+04 E0= -.15857478E+04  d E =-.125406E-02
       N       E                     dE             d eps       ncg     rms          rms(c)
DAV:   1    -0.158575713282E+04   -0.98866E-03   -0.91918E-02 11662   0.393E-01    0.486E-02
DAV:   2    -0.158575734850E+04   -0.21568E-03   -0.16587E-03 17856   0.702E-02    0.613E-02
DAV:   3    -0.158575708983E+04    0.25867E-03   -0.79315E-04 17936   0.471E-02    0.257E-02
DAV:   4    -0.158575707188E+04    0.17956E-04   -0.94254E-05 14096   0.145E-02    0.168E-02
DAV:   5    -0.158575705847E+04    0.13403E-04   -0.43342E-05  9952   0.125E-02    0.820E-03
DAV:   6    -0.158575705293E+04    0.55426E-05   -0.15246E-05  7448   0.860E-03
  11 F= -.15857571E+04 E0= -.15857486E+04  d E =-.899362E-03
       N       E                     dE             d eps       ncg     rms          rms(c)
DAV:   1    -0.158575765726E+04   -0.59879E-03   -0.74231E-02 11690   0.355E-01    0.404E-02
DAV:   2    -0.158575775057E+04   -0.93305E-04   -0.86086E-04 17368   0.457E-02    0.387E-02
DAV:   3    -0.158575768046E+04    0.70106E-04   -0.29491E-04 17940   0.294E-02    0.229E-02
DAV:   4    -0.158575768135E+04   -0.89046E-06   -0.60452E-05 12216   0.115E-02    0.102E-02
DAV:   5    -0.158575768485E+04   -0.34993E-05   -0.19735E-05  7985   0.933E-03
  12 F= -.15857577E+04 E0= -.15857493E+04  d E =-.631921E-03
       N       E                     dE             d eps       ncg     rms          rms(c)
DAV:   1    -0.158575795072E+04   -0.26937E-03   -0.74329E-03 11816   0.122E-01    0.294E-02
DAV:   2    -0.158575790766E+04    0.43065E-04   -0.18840E-04 17200   0.225E-02    0.199E-02
DAV:   3    -0.158575788429E+04    0.23367E-04   -0.98112E-05 14440   0.169E-02    0.126E-02
DAV:   4    -0.158575786677E+04    0.17520E-04   -0.23584E-05  7784   0.892E-03    0.661E-03
DAV:   5    -0.158575785671E+04    0.10058E-04   -0.11160E-05  6360   0.645E-03    0.320E-03
DAV:   6    -0.158575785433E+04    0.23809E-05   -0.38309E-06  6240   0.434E-03
  13 F= -.15857579E+04 E0= -.15857494E+04  d E =-.169481E-03
       N       E                     dE             d eps       ncg     rms          rms(c)
DAV:   1    -0.158575822627E+04   -0.36956E-03   -0.36066E-02 11662   0.246E-01    0.249E-02
DAV:   2    -0.158575826629E+04   -0.40015E-04   -0.36663E-04 17384   0.281E-02    0.237E-02
DAV:   3    -0.158575824318E+04    0.23102E-04   -0.88932E-05 14229   0.170E-02    0.153E-02
DAV:   4    -0.158575824475E+04   -0.15684E-05   -0.28171E-05  7616   0.826E-03    0.523E-03
DAV:   5    -0.158575824578E+04   -0.10298E-05   -0.82273E-06  6688   0.627E-03
  14 F= -.15857582E+04 E0= -.15857498E+04  d E =-.391448E-03
       N       E                     dE             d eps       ncg     rms          rms(c)
DAV:   1    -0.158575859790E+04   -0.35315E-03   -0.42751E-02 11648   0.268E-01    0.278E-02
DAV:   2    -0.158575862884E+04   -0.30944E-04   -0.46847E-04 17544   0.322E-02    0.267E-02
DAV:   3    -0.158575859446E+04    0.34383E-04   -0.13431E-04 15954   0.202E-02    0.164E-02
DAV:   4    -0.158575858288E+04    0.11584E-04   -0.26488E-05  7864   0.813E-03    0.853E-03
DAV:   5    -0.158575857747E+04    0.54116E-05   -0.12103E-05  6968   0.719E-03
  15 F= -.15857586E+04 E0= -.15857502E+04  d E =-.331684E-03
       N       E                     dE             d eps       ncg     rms          rms(c)
DAV:   1    -0.158575865442E+04   -0.71541E-04   -0.29524E-03 11816   0.759E-02    0.157E-02
DAV:   2    -0.158575865979E+04   -0.53762E-05   -0.32368E-05  7880   0.993E-03    0.858E-03
DAV:   3    -0.158575866311E+04   -0.33199E-05   -0.13788E-05  7288   0.817E-03    0.669E-03
DAV:   4    -0.158575866711E+04   -0.39946E-05   -0.71241E-06  6272   0.568E-03    0.283E-03
DAV:   5    -0.158575867064E+04   -0.35342E-05   -0.38871E-06  6104   0.342E-03
  16 F= -.15857587E+04 E0= -.15857503E+04  d E =-.931773E-04
       N       E                     dE             d eps       ncg     rms          rms(c)
DAV:   1    -0.158575888634E+04   -0.21924E-03   -0.18555E-02 11711   0.176E-01    0.188E-02
DAV:   2    -0.158575889070E+04   -0.43600E-05   -0.18889E-04 17072   0.186E-02    0.154E-02
DAV:   3    -0.158575888162E+04    0.90855E-05   -0.28514E-05  8747   0.106E-02    0.112E-02
DAV:   4    -0.158575887507E+04    0.65517E-05   -0.15042E-05  6408   0.652E-03    0.560E-03
DAV:   5    -0.158575887168E+04    0.33840E-05   -0.70441E-06  6144   0.553E-03
  17 F= -.15857589E+04 E0= -.15857504E+04  d E =-.201040E-03
       N       E                     dE             d eps       ncg     rms          rms(c)
DAV:   1    -0.158575905456E+04   -0.17949E-03   -0.20239E-02 11648   0.184E-01    0.171E-02
DAV:   2    -0.158575907092E+04   -0.16361E-04   -0.17698E-04 16592   0.175E-02    0.139E-02
DAV:   3    -0.158575906780E+04    0.31225E-05   -0.16094E-05  7758   0.826E-03    0.109E-02
DAV:   4    -0.158575906919E+04   -0.13969E-05   -0.15015E-05  6368   0.603E-03    0.245E-03
DAV:   5    -0.158575906957E+04   -0.37724E-06   -0.37414E-06  6104   0.418E-03
  18 F= -.15857591E+04 E0= -.15857506E+04  d E =-.197887E-03
       N       E                     dE             d eps       ncg     rms          rms(c)
DAV:   1    -0.158575921024E+04   -0.14105E-03   -0.11918E-02 11704   0.142E-01    0.166E-02
DAV:   2    -0.158575920431E+04    0.59316E-05   -0.12186E-04 15856   0.155E-02    0.124E-02
DAV:   3    -0.158575919748E+04    0.68249E-05   -0.21626E-05  8235   0.948E-03    0.897E-03
DAV:   4    -0.158575919078E+04    0.67032E-05   -0.10578E-05  6224   0.591E-03    0.474E-03
DAV:   5    -0.158575918631E+04    0.44700E-05   -0.52537E-06  6104   0.452E-03
  19 F= -.15857592E+04 E0= -.15857507E+04  d E =-.116739E-03
       N       E                     dE             d eps       ncg     rms          rms(c)
DAV:   1    -0.158575925788E+04   -0.67098E-04   -0.35663E-03 11760   0.789E-02    0.110E-02
DAV:   2    -0.158575926394E+04   -0.60641E-05   -0.24866E-05  7944   0.822E-03    0.703E-03
DAV:   3    -0.158575926586E+04   -0.19162E-05   -0.94308E-06  6572   0.599E-03    0.539E-03
DAV:   4    -0.158575926966E+04   -0.38004E-05   -0.55830E-06  6104   0.432E-03    0.202E-03
DAV:   5    -0.158575927168E+04   -0.20184E-05   -0.28783E-06  6104   0.294E-03
  20 F= -.15857593E+04 E0= -.15857508E+04  d E =-.853671E-04
       N       E                     dE             d eps       ncg     rms          rms(c)
DAV:   1    -0.158575939028E+04   -0.12062E-03   -0.11293E-02 11648   0.137E-01    0.135E-02
DAV:   2    -0.158575939313E+04   -0.28535E-05   -0.10684E-04 15696   0.130E-02    0.104E-02
DAV:   3    -0.158575939074E+04    0.23958E-05   -0.93364E-06  6861   0.597E-03    0.819E-03
DAV:   4    -0.158575938659E+04    0.41431E-05   -0.66800E-06  6104   0.471E-03    0.294E-03
DAV:   5    -0.158575938536E+04    0.12287E-05   -0.26603E-06  6097   0.351E-03
  21 F= -.15857594E+04 E0= -.15857509E+04  d E =-.113688E-03
       N       E                     dE             d eps       ncg     rms          rms(c)
DAV:   1    -0.158575946158E+04   -0.74984E-04   -0.63227E-03 11690   0.103E-01    0.101E-02
DAV:   2    -0.158575946833E+04   -0.67569E-05   -0.49000E-05 11096   0.947E-03    0.751E-03
DAV:   3    -0.158575946930E+04   -0.97038E-06   -0.86731E-06  6363   0.528E-03    0.578E-03
DAV:   4    -0.158575947190E+04   -0.25988E-05   -0.45638E-06  6104   0.381E-03    0.165E-03
DAV:   5    -0.158575947289E+04   -0.98983E-06   -0.19071E-06  6104   0.264E-03
  22 F= -.15857595E+04 E0= -.15857510E+04  d E =-.875288E-04
       N       E                     dE             d eps       ncg     rms          rms(c)
DAV:   1    -0.158575954696E+04   -0.75060E-04   -0.50343E-03 11704   0.922E-02    0.104E-02
DAV:   2    -0.158575954189E+04    0.50727E-05   -0.38419E-05  9520   0.915E-03    0.714E-03
DAV:   3    -0.158575954008E+04    0.18149E-05   -0.10853E-05  6468   0.599E-03    0.539E-03
DAV:   4    -0.158575953636E+04    0.37193E-05   -0.50624E-06  6104   0.413E-03    0.250E-03
DAV:   5    -0.158575953461E+04    0.17476E-05   -0.28377E-06  6097   0.303E-03
  23 F= -.15857595E+04 E0= -.15857511E+04  d E =-.617153E-04
       N       E                     dE             d eps       ncg     rms          rms(c)
DAV:   1    -0.158575959305E+04   -0.56698E-04   -0.45090E-03 11690   0.870E-02    0.923E-03
DAV:   2    -0.158575959797E+04   -0.49174E-05   -0.29973E-05  8616   0.827E-03    0.653E-03
DAV:   3    -0.158575959945E+04   -0.14817E-05   -0.99414E-06  6147   0.521E-03    0.496E-03
DAV:   4    -0.158575960201E+04   -0.25523E-05   -0.57905E-06  6104   0.407E-03    0.161E-03
DAV:   5    -0.158575960303E+04   -0.10202E-05   -0.29544E-06  6104   0.290E-03
  24 F= -.15857596E+04 E0= -.15857512E+04  d E =-.684170E-04
       N       E                     dE             d eps       ncg     rms          rms(c)
DAV:   1    -0.158575966591E+04   -0.63903E-04   -0.50143E-03 11676   0.915E-02    0.952E-03
DAV:   2    -0.158575966364E+04    0.22660E-05   -0.41296E-05 10048   0.888E-03    0.682E-03
DAV:   3    -0.158575966228E+04    0.13592E-05   -0.94854E-06  6236   0.536E-03    0.497E-03
DAV:   4    -0.158575965961E+04    0.26689E-05   -0.43763E-06  6104   0.397E-03    0.218E-03
DAV:   5    -0.158575965850E+04    0.11186E-05   -0.24208E-06  6097   0.288E-03
  25 F= -.15857597E+04 E0= -.15857512E+04  d E =-.554702E-04
       N       E                     dE             d eps       ncg     rms          rms(c)
DAV:   1    -0.158575969906E+04   -0.39450E-04   -0.28427E-03 11690   0.690E-02    0.715E-03
DAV:   2    -0.158575970279E+04   -0.37237E-05   -0.17973E-05  6416   0.660E-03    0.508E-03
DAV:   3    -0.158575970394E+04   -0.11511E-05   -0.67215E-06  6085   0.421E-03    0.386E-03
DAV:   4    -0.158575970615E+04   -0.22081E-05   -0.40390E-06  6104   0.329E-03    0.119E-03
DAV:   5    -0.158575970684E+04   -0.69428E-06   -0.20977E-06  6104   0.241E-03
  26 F= -.15857597E+04 E0= -.15857513E+04  d E =-.483456E-04
       N       E                     dE             d eps       ncg     rms          rms(c)
DAV:   1    -0.158575975936E+04   -0.53217E-04   -0.43802E-03 11676   0.855E-02    0.871E-03
DAV:   2    -0.158575975703E+04    0.23321E-05   -0.30221E-05  8992   0.818E-03    0.615E-03
DAV:   3    -0.158575975588E+04    0.11576E-05   -0.93801E-06  6274   0.500E-03    0.429E-03
DAV:   4    -0.158575975375E+04    0.21225E-05   -0.49719E-06  6104   0.403E-03    0.179E-03
DAV:   5    -0.158575975313E+04    0.62354E-06   -0.28222E-06  6097   0.296E-03
  27 F= -.15857598E+04 E0= -.15857513E+04  d E =-.462875E-04
       N       E                     dE             d eps       ncg     rms          rms(c)
DAV:   1    -0.158575978366E+04   -0.29912E-04   -0.21630E-03 11690   0.603E-02    0.671E-03
DAV:   2    -0.158575978742E+04   -0.37576E-05   -0.15087E-05  6192   0.615E-03    0.465E-03
DAV:   3    -0.158575978859E+04   -0.11695E-05   -0.59513E-06  6076   0.415E-03    0.354E-03
DAV:   4    -0.158575979071E+04   -0.21181E-05   -0.34253E-06  6104   0.312E-03    0.137E-03
DAV:   5    -0.158575979167E+04   -0.96512E-06   -0.19006E-06  6104   0.236E-03
  28 F= -.15857598E+04 E0= -.15857513E+04  d E =-.385455E-04
       N       E                     dE             d eps       ncg     rms          rms(c)
DAV:   1    -0.158575982840E+04   -0.37687E-04   -0.25032E-03 11676   0.646E-02    0.674E-03
DAV:   2    -0.158575982610E+04    0.22955E-05   -0.16127E-05  7440   0.630E-03    0.467E-03
DAV:   3    -0.158575982503E+04    0.10688E-05   -0.63123E-06  6124   0.399E-03    0.307E-03
DAV:   4    -0.158575982364E+04    0.13944E-05   -0.34495E-06  6104   0.324E-03    0.144E-03
DAV:   5    -0.158575982315E+04    0.48297E-06   -0.20404E-06  6097   0.247E-03
  29 F= -.15857598E+04 E0= -.15857514E+04  d E =-.314800E-04
       N       E                     dE             d eps       ncg     rms          rms(c)
DAV:   1    -0.158575985804E+04   -0.34398E-04   -0.33976E-03 11676   0.752E-02    0.732E-03
DAV:   2    -0.158575986121E+04   -0.31796E-05   -0.21520E-05  7528   0.713E-03    0.534E-03
DAV:   3    -0.158575986238E+04   -0.11608E-05   -0.77273E-06  6113   0.439E-03    0.387E-03
DAV:   4    -0.158575986404E+04   -0.16687E-05   -0.46971E-06  6104   0.364E-03    0.949E-04
DAV:   5    -0.158575986440E+04   -0.35844E-06   -0.24105E-06  6104   0.263E-03
  30 F= -.15857599E+04 E0= -.15857514E+04  d E =-.412482E-04
       N       E                     dE             d eps       ncg     rms          rms(c)
DAV:   1    -0.158575989053E+04   -0.26484E-04   -0.14438E-03 11690   0.494E-02    0.598E-03
DAV:   2    -0.158575988687E+04    0.36586E-05   -0.11160E-05  6224   0.534E-03    0.384E-03
DAV:   3    -0.158575988572E+04    0.11463E-05   -0.46313E-06  6083   0.376E-03    0.280E-03
DAV:   4    -0.158575988404E+04    0.16823E-05   -0.24328E-06  6083   0.280E-03    0.145E-03
DAV:   5    -0.158575988308E+04    0.95889E-06   -0.15078E-06  6083   0.211E-03
  31 F= -.15857599E+04 E0= -.15857514E+04  d E =-.186790E-04
       N       E                     dE             d eps       ncg     rms          rms(c)
DAV:   1    -0.158575990363E+04   -0.19590E-04   -0.14904E-03 11676   0.499E-02    0.521E-03
DAV:   2    -0.158575990601E+04   -0.23772E-05   -0.97962E-06  6665   0.491E-03    0.374E-03
DAV:   3    -0.158575990679E+04   -0.78179E-06   -0.38337E-06  6052   0.320E-03    0.283E-03
DAV:   4    -0.158575990830E+04   -0.15100E-05   -0.23426E-06  6041   0.253E-03    0.830E-04
DAV:   5    -0.158575990872E+04   -0.41985E-06   -0.12461E-06  6041   0.189E-03
  32 F= -.15857599E+04 E0= -.15857514E+04  d E =-.256377E-04
       N       E                     dE             d eps       ncg     rms          rms(c)
DAV:   1    -0.158575993942E+04   -0.31120E-04   -0.31109E-03 11676   0.719E-02    0.686E-03
DAV:   2    -0.158575993857E+04    0.84789E-06   -0.18590E-05  7720   0.671E-03    0.496E-03
DAV:   3    -0.158575993773E+04    0.84586E-06   -0.69981E-06  6168   0.402E-03    0.276E-03
DAV:   4    -0.158575993691E+04    0.81151E-06   -0.38368E-06  6104   0.342E-03    0.109E-03
DAV:   5    -0.158575993691E+04    0.25989E-08   -0.21466E-06  6104   0.260E-03
  33 F= -.15857599E+04 E0= -.15857515E+04  d E =-.281921E-04
       N       E                     dE             d eps       ncg     rms          rms(c)
DAV:   1    -0.158575995277E+04   -0.15851E-04   -0.15486E-03 11690   0.512E-02    0.616E-03
DAV:   2    -0.158575995645E+04   -0.36849E-05   -0.11619E-05  6041   0.546E-03    0.407E-03
DAV:   3    -0.158575995768E+04   -0.12297E-05   -0.47752E-06  6034   0.387E-03    0.308E-03
DAV:   4    -0.158575995964E+04   -0.19589E-05   -0.26331E-06  6020   0.284E-03    0.136E-03
DAV:   5    -0.158575996071E+04   -0.10733E-05   -0.15470E-06  6020   0.216E-03
  34 F= -.15857600E+04 E0= -.15857515E+04  d E =-.238008E-04
       N       E                     dE             d eps       ncg     rms          rms(c)
DAV:   1    -0.158575997608E+04   -0.16437E-04   -0.52280E-04 11690   0.300E-02    0.438E-03
DAV:   2    -0.158575997290E+04    0.31802E-05   -0.48160E-06  6020   0.354E-03    0.267E-03
DAV:   3    -0.158575997193E+04    0.96190E-06   -0.21497E-06  5992   0.266E-03    0.201E-03
DAV:   4    -0.158575997063E+04    0.13075E-05   -0.11005E-06  6020   0.187E-03    0.106E-03
DAV:   5    -0.158575996975E+04    0.87556E-06   -0.68146E-07  6020   0.139E-03
  35 F= -.15857600E+04 E0= -.15857515E+04  d E =-.903893E-05
       N       E                     dE             d eps       ncg     rms          rms(c)
DAV:   1    -0.158575998954E+04   -0.18909E-04   -0.20270E-03 11662   0.580E-02    0.544E-03
DAV:   2    -0.158575999034E+04   -0.80579E-06   -0.11572E-05  7104   0.529E-03    0.402E-03
DAV:   3    -0.158575999066E+04   -0.31721E-06   -0.44383E-06  6130   0.321E-03    0.242E-03
DAV:   4    -0.158575999089E+04   -0.22663E-06   -0.26368E-06  6041   0.278E-03    0.692E-04
DAV:   5    -0.158575999095E+04   -0.66613E-07   -0.13360E-06  6041   0.190E-03
  36 F= -.15857600E+04 E0= -.15857515E+04  d E =-.212008E-04
       N       E                     dE             d eps       ncg     rms          rms(c)
DAV:   1    -0.158576005729E+04   -0.66400E-04   -0.40352E-02 11620   0.259E-01    0.240E-02
DAV:   2    -0.158576007324E+04   -0.15950E-04   -0.34860E-04 17160   0.230E-02    0.182E-02
DAV:   3    -0.158576006493E+04    0.83103E-05   -0.21635E-05  7992   0.813E-03    0.112E-02
DAV:   4    -0.158576005940E+04    0.55206E-05   -0.15384E-05  7648   0.847E-03    0.442E-03
DAV:   5    -0.158576005772E+04    0.16854E-05   -0.55289E-06  6368   0.596E-03
  37 F= -.15857601E+04 E0= -.15857516E+04  d E =-.667672E-04
       N       E                     dE             d eps       ncg     rms          rms(c)
DAV:   1    -0.158576001272E+04    0.46689E-04   -0.16565E-02 11620   0.167E-01    0.170E-02
DAV:   2    -0.158576002235E+04   -0.96293E-05   -0.12654E-04 15928   0.145E-02    0.123E-02
DAV:   3    -0.158576002227E+04    0.72610E-07   -0.11110E-05  6736   0.611E-03    0.834E-03
DAV:   4    -0.158576002344E+04   -0.11673E-05   -0.74158E-06  6128   0.591E-03    0.352E-03
DAV:   5    -0.158576002437E+04   -0.92809E-06   -0.31202E-06  6020   0.393E-03
  38 F= -.15857600E+04 E0= -.15857515E+04  d E =0.333512E-04
       N       E                     dE             d eps       ncg     rms          rms(c)
DAV:   1    -0.158576005377E+04   -0.30331E-04   -0.63826E-03 11620   0.103E-01    0.970E-03
DAV:   2    -0.158576005367E+04    0.10237E-06   -0.33017E-05  8256   0.882E-03    0.715E-03
DAV:   3    -0.158576005302E+04    0.65024E-06   -0.94289E-06  6083   0.495E-03    0.483E-03
DAV:   4    -0.158576005147E+04    0.15482E-05   -0.60783E-06  6041   0.429E-03    0.117E-03
DAV:   5    -0.158576005168E+04   -0.21106E-06   -0.24208E-06  6020   0.267E-03
  39 F= -.15857601E+04 E0= -.15857516E+04  d E =-.273132E-04
       N       E                     dE             d eps       ncg     rms          rms(c)
DAV:   1    -0.158576008656E+04   -0.35085E-04   -0.25476E-02 11620   0.206E-01    0.185E-02
DAV:   2    -0.158576010123E+04   -0.14674E-04   -0.22371E-04 16832   0.182E-02    0.144E-02
DAV:   3    -0.158576009854E+04    0.26859E-05   -0.13258E-05  7400   0.659E-03    0.930E-03
DAV:   4    -0.158576009600E+04    0.25471E-05   -0.10589E-05  6752   0.669E-03    0.260E-03
DAV:   5    -0.158576009570E+04    0.30030E-06   -0.28727E-06  6104   0.398E-03
  40 F= -.15857601E+04 E0= -.15857516E+04  d E =-.440149E-04
       N       E                     dE             d eps       ncg     rms          rms(c)
DAV:   1    -0.158576011324E+04   -0.17241E-04   -0.91138E-03 11620   0.124E-01    0.124E-02
DAV:   2    -0.158576011149E+04    0.17493E-05   -0.81090E-05 14240   0.115E-02    0.899E-03
DAV:   3    -0.158576010882E+04    0.26687E-05   -0.95041E-06  6554   0.563E-03    0.675E-03
DAV:   4    -0.158576010495E+04    0.38721E-05   -0.47802E-06  6104   0.442E-03    0.328E-03
DAV:   5    -0.158576010268E+04    0.22708E-05   -0.25544E-06  6083   0.327E-03
  41 F= -.15857601E+04 E0= -.15857516E+04  d E =-.698018E-05
       N       E                     dE             d eps       ncg     rms          rms(c)
DAV:   1    -0.158576009519E+04    0.97608E-05   -0.27096E-03 11634   0.679E-02    0.802E-03
DAV:   2    -0.158576009892E+04   -0.37342E-05   -0.14462E-05  6031   0.636E-03    0.521E-03
DAV:   3    -0.158576010041E+04   -0.14938E-05   -0.48261E-06  5978   0.409E-03    0.392E-03
DAV:   4    -0.158576010234E+04   -0.19303E-05   -0.26625E-06  5999   0.314E-03    0.161E-03
DAV:   5    -0.158576010353E+04   -0.11867E-05   -0.14217E-06  5999   0.206E-03
  42 F= -.15857601E+04 E0= -.15857516E+04  d E =-.854945E-06
       N       E                     dE             d eps       ncg     rms          rms(c)
DAV:   1    -0.158576010830E+04   -0.59562E-05   -0.63409E-04 11662   0.326E-02    0.281E-03
DAV:   2    -0.158576010830E+04    0.33292E-08   -0.26585E-06  5957   0.271E-03    0.209E-03
DAV:   3    -0.158576010823E+04    0.68766E-07   -0.64691E-07  5950   0.142E-03    0.157E-03
DAV:   4    -0.158576010806E+04    0.16953E-06   -0.46298E-07  5957   0.118E-03    0.429E-04
DAV:   5    -0.158576010804E+04    0.14584E-07   -0.18336E-07  5957   0.799E-04
  43 F= -.15857601E+04 E0= -.15857516E+04  d E =-.451328E-05
       N       E                     dE             d eps       ncg     rms          rms(c)
DAV:   1    -0.158576011481E+04   -0.67487E-05   -0.36548E-03 11620   0.780E-02    0.701E-03
DAV:   2    -0.158576011536E+04   -0.55102E-06   -0.19222E-05  6734   0.685E-03    0.518E-03
DAV:   3    -0.158576011525E+04    0.11143E-06   -0.69550E-06  6048   0.397E-03    0.290E-03
DAV:   4    -0.158576011503E+04    0.22107E-06   -0.38499E-06  6020   0.344E-03    0.862E-04
DAV:   5    -0.158576011518E+04   -0.15665E-06   -0.19505E-06  6013   0.234E-03
  44 F= -.15857601E+04 E0= -.15857516E+04  d E =-.713847E-05
