       N       E                     dE             d eps       ncg     rms          rms(c)
DAV:   1     0.194171479103E+04    0.19417E+04   -0.27682E+05 11172   0.142E+03
DAV:   2    -0.118628399620E+04   -0.31280E+04   -0.30077E+04 12910   0.266E+02
DAV:   3    -0.157755274728E+04   -0.39127E+03   -0.35544E+03 17520   0.822E+01
DAV:   4    -0.160261011602E+04   -0.25057E+02   -0.22632E+02 15920   0.162E+01
DAV:   5    -0.160375214872E+04   -0.11420E+01   -0.11130E+01 16704   0.443E+00    0.379E+01
DAV:   6    -0.156822840807E+04    0.35524E+02   -0.11580E+02 17384   0.149E+01    0.226E+01
DAV:   7    -0.155702281701E+04    0.11206E+02   -0.94040E+01 16480   0.151E+01    0.174E+01
DAV:   8    -0.154939652457E+04    0.76263E+01   -0.61203E+01 16744   0.117E+01    0.119E+01
DAV:   9    -0.154131113219E+04    0.80854E+01   -0.30436E+01 16400   0.862E+00    0.362E+00
DAV:  10    -0.154107581436E+04    0.23532E+00   -0.64407E+00 16200   0.340E+00    0.148E+00
DAV:  11    -0.154107405974E+04    0.17546E-02   -0.73028E-01 14880   0.118E+00    0.973E-01
DAV:  12    -0.154106581769E+04    0.82421E-02   -0.20520E-01 15528   0.654E-01    0.672E-01
DAV:  13    -0.154105343864E+04    0.12379E-01   -0.71457E-02 15712   0.460E-01    0.471E-01
DAV:  14    -0.154104419723E+04    0.92414E-02   -0.29088E-02 15224   0.246E-01    0.230E-01
DAV:  15    -0.154104280672E+04    0.13905E-02   -0.10928E-02 15816   0.145E-01    0.103E-01
DAV:  16    -0.154104260672E+04    0.19999E-03   -0.27418E-03 15688   0.807E-02    0.591E-02
DAV:  17    -0.154104254683E+04    0.59889E-04   -0.10588E-03 15040   0.453E-02    0.303E-02
DAV:  18    -0.154104254185E+04    0.49866E-05   -0.26691E-04 15208   0.242E-02    0.167E-02
DAV:  19    -0.154104253242E+04    0.94241E-05   -0.67966E-05 11384   0.138E-02
   1 F= -.15410425E+04 E0= -.15410435E+04  d E =-.154104E+04
       N       E                     dE             d eps       ncg     rms          rms(c)
DAV:   1    -0.154455221714E+04   -0.35097E+01   -0.26678E+03 11172   0.799E+01    0.276E+01
DAV:   2    -0.151607949083E+04    0.28473E+02   -0.16540E+02 18488   0.184E+01    0.182E+01
DAV:   3    -0.150718679178E+04    0.88927E+01   -0.97253E+01 18736   0.135E+01    0.140E+01
DAV:   4    -0.150207094278E+04    0.51158E+01   -0.39909E+01 19632   0.852E+00    0.109E+01
DAV:   5    -0.149702366223E+04    0.50473E+01   -0.27660E+01 18424   0.662E+00    0.490E+00
DAV:   6    -0.149638177501E+04    0.64189E+00   -0.88085E+00 18504   0.374E+00    0.322E+00
DAV:   7    -0.149610231505E+04    0.27946E+00   -0.18648E+00 17720   0.186E+00    0.210E+00
DAV:   8    -0.149602616342E+04    0.76152E-01   -0.56360E-01 17512   0.806E-01    0.101E+00
DAV:   9    -0.149602523071E+04    0.93271E-03   -0.30155E-01 17872   0.543E-01    0.542E-01
DAV:  10    -0.149602539485E+04   -0.16414E-03   -0.67542E-02 17312   0.368E-01    0.472E-01
DAV:  11    -0.149601596423E+04    0.94306E-02   -0.38470E-02 19328   0.262E-01    0.188E-01
DAV:  12    -0.149601613292E+04   -0.16870E-03   -0.12711E-02 17840   0.123E-01    0.126E-01
DAV:  13    -0.149601673865E+04   -0.60573E-03   -0.33425E-03 18008   0.795E-02    0.996E-02
DAV:  14    -0.149601682458E+04   -0.85926E-04   -0.21665E-03 18352   0.585E-02    0.458E-02
DAV:  15    -0.149601698899E+04   -0.16441E-03   -0.10550E-03 18032   0.347E-02    0.484E-02
DAV:  16    -0.149601693999E+04    0.48997E-04   -0.23753E-04 17728   0.214E-02    0.311E-02
DAV:  17    -0.149601691541E+04    0.24586E-04   -0.13749E-04 16424   0.138E-02    0.128E-02
DAV:  18    -0.149601692200E+04   -0.65973E-05   -0.48088E-05  9216   0.843E-03
   2 F= -.14960169E+04 E0= -.14960180E+04  d E =0.450256E+02
       N       E                     dE             d eps       ncg     rms          rms(c)
DAV:   1    -0.157431650895E+04   -0.78300E+02   -0.13462E+03 11172   0.629E+01    0.193E+01
DAV:   2    -0.155950528808E+04    0.14811E+02   -0.49620E+01 17320   0.114E+01    0.104E+01
DAV:   3    -0.155618002524E+04    0.33253E+01   -0.32300E+01 17144   0.830E+00    0.803E+00
DAV:   4    -0.155403444973E+04    0.21456E+01   -0.14351E+01 17592   0.574E+00    0.572E+00
DAV:   5    -0.155225965134E+04    0.17748E+01   -0.82129E+00 16536   0.428E+00    0.202E+00
DAV:   6    -0.155214316255E+04    0.11649E+00   -0.22025E+00 15784   0.199E+00    0.912E-01
DAV:   7    -0.155215553983E+04   -0.12377E-01   -0.24607E-01 14008   0.725E-01    0.670E-01
DAV:   8    -0.155215805176E+04   -0.25119E-02   -0.50549E-02 16032   0.322E-01    0.417E-01
DAV:   9    -0.155216855181E+04   -0.10500E-01   -0.53139E-02 15888   0.274E-01    0.236E-01
DAV:  10    -0.155216919855E+04   -0.64674E-03   -0.11414E-02 14248   0.168E-01    0.138E-01
DAV:  11    -0.155216906670E+04    0.13185E-03   -0.37405E-03 15944   0.823E-02    0.712E-02
DAV:  12    -0.155216922986E+04   -0.16316E-03   -0.13552E-03 16648   0.521E-02    0.462E-02
DAV:  13    -0.155216950001E+04   -0.27015E-03   -0.71720E-04 14688   0.373E-02    0.316E-02
DAV:  14    -0.155216953424E+04   -0.34225E-04   -0.19522E-04 13952   0.206E-02    0.173E-02
DAV:  15    -0.155216952832E+04    0.59135E-05   -0.39565E-05  8088   0.104E-02
   3 F= -.15521695E+04 E0= -.15521900E+04  d E =-.561526E+02
       N       E                     dE             d eps       ncg     rms          rms(c)
DAV:   1    -0.155261106344E+04   -0.44153E+00   -0.26295E+01 11172   0.733E+00    0.130E+00
DAV:   2    -0.155257187124E+04    0.39192E-01   -0.42507E-01 16096   0.796E-01    0.759E-01
DAV:   3    -0.155256639726E+04    0.54740E-02   -0.13542E-01 18240   0.548E-01    0.664E-01
DAV:   4    -0.155254513176E+04    0.21265E-01   -0.69821E-02 17248   0.412E-01    0.337E-01
DAV:   5    -0.155254067923E+04    0.44525E-02   -0.33575E-02 15144   0.264E-01    0.141E-01
DAV:   6    -0.155254027554E+04    0.40369E-03   -0.76872E-03 15848   0.143E-01    0.919E-02
DAV:   7    -0.155254011012E+04    0.16542E-03   -0.20256E-03 15480   0.695E-02    0.598E-02
DAV:   8    -0.155254008152E+04    0.28606E-04   -0.60312E-04 15264   0.339E-02    0.325E-02
DAV:   9    -0.155254011448E+04   -0.32959E-04   -0.24532E-04 14912   0.211E-02    0.197E-02
DAV:  10    -0.155254012585E+04   -0.11371E-04   -0.65737E-05 12144   0.139E-02    0.123E-02
DAV:  11    -0.155254012486E+04    0.98430E-06   -0.20514E-05  7280   0.871E-03
   4 F= -.15525401E+04 E0= -.15525589E+04  d E =-.370597E+00
       N       E                     dE             d eps       ncg     rms          rms(c)
DAV:   1    -0.155259730847E+04   -0.57183E-01   -0.40985E+00 11172   0.274E+00    0.451E-01
DAV:   2    -0.155260194381E+04   -0.46353E-02   -0.11305E-01 17872   0.510E-01    0.409E-01
DAV:   3    -0.155259327460E+04    0.86692E-02   -0.44025E-02 17912   0.326E-01    0.232E-01
DAV:   4    -0.155259132636E+04    0.19482E-02   -0.95415E-03 17752   0.140E-01    0.152E-01
DAV:   5    -0.155259049311E+04    0.83326E-03   -0.42748E-03 15680   0.940E-02    0.841E-02
DAV:   6    -0.155259029283E+04    0.20028E-03   -0.18554E-03 15680   0.690E-02    0.529E-02
DAV:   7    -0.155259015617E+04    0.13666E-03   -0.62316E-04 15440   0.416E-02    0.265E-02
DAV:   8    -0.155259015670E+04   -0.53645E-06   -0.15404E-04 14808   0.162E-02    0.157E-02
DAV:   9    -0.155259016078E+04   -0.40755E-05   -0.39394E-05  8528   0.976E-03
   5 F= -.15525902E+04 E0= -.15526092E+04  d E =-.500359E-01
       N       E                     dE             d eps       ncg     rms          rms(c)
DAV:   1    -0.155261001350E+04   -0.19857E-01   -0.22280E+00 11172   0.199E+00    0.232E-01
DAV:   2    -0.155261423933E+04   -0.42258E-02   -0.41723E-02 17368   0.290E-01    0.256E-01
DAV:   3    -0.155261084114E+04    0.33982E-02   -0.13513E-02 17848   0.184E-01    0.131E-01
DAV:   4    -0.155261052355E+04    0.31759E-03   -0.25631E-03 16432   0.701E-02    0.934E-02
DAV:   5    -0.155261034922E+04    0.17434E-03   -0.14487E-03 15344   0.563E-02    0.481E-02
DAV:   6    -0.155261031408E+04    0.35135E-04   -0.61604E-04 16360   0.418E-02    0.288E-02
DAV:   7    -0.155261028008E+04    0.34005E-04   -0.21802E-04 15936   0.224E-02    0.122E-02
DAV:   8    -0.155261027323E+04    0.68444E-05   -0.32549E-05  7480   0.889E-03
   6 F= -.15526103E+04 E0= -.15526290E+04  d E =-.201125E-01
       N       E                     dE             d eps       ncg     rms          rms(c)
DAV:   1    -0.155261872322E+04   -0.84431E-02   -0.54245E-01 11291   0.103E+00    0.202E-01
DAV:   2    -0.155261894559E+04   -0.22237E-03   -0.16784E-02 17960   0.208E-01    0.179E-01
DAV:   3    -0.155261723386E+04    0.17117E-02   -0.80787E-03 17880   0.141E-01    0.100E-01
DAV:   4    -0.155261681888E+04    0.41497E-03   -0.18795E-03 16616   0.616E-02    0.648E-02
DAV:   5    -0.155261660380E+04    0.21509E-03   -0.89262E-04 15368   0.454E-02    0.341E-02
DAV:   6    -0.155261654367E+04    0.60124E-04   -0.34256E-04 15616   0.307E-02    0.212E-02
DAV:   7    -0.155261651759E+04    0.26083E-04   -0.10660E-04 13640   0.172E-02    0.108E-02
DAV:   8    -0.155261651962E+04   -0.20309E-05   -0.22224E-05  6696   0.740E-03
   7 F= -.15526165E+04 E0= -.15526353E+04  d E =-.624639E-02
       N       E                     dE             d eps       ncg     rms          rms(c)
DAV:   1    -0.155262194569E+04   -0.54281E-02   -0.35503E-01 11242   0.814E-01    0.113E-01
DAV:   2    -0.155262241813E+04   -0.47243E-03   -0.58343E-03 17112   0.108E-01    0.108E-01
DAV:   3    -0.155262187672E+04    0.54141E-03   -0.21781E-03 18000   0.745E-02    0.603E-02
DAV:   4    -0.155262181954E+04    0.57181E-04   -0.55936E-04 15536   0.328E-02    0.359E-02
DAV:   5    -0.155262180792E+04    0.11611E-04   -0.30395E-04 15928   0.273E-02    0.189E-02
DAV:   6    -0.155262180206E+04    0.58677E-05   -0.10454E-04 14152   0.177E-02    0.958E-03
DAV:   7    -0.155262179982E+04    0.22328E-05   -0.24169E-05  6784   0.889E-03
   8 F= -.15526218E+04 E0= -.15526404E+04  d E =-.528020E-02
       N       E                     dE             d eps       ncg     rms          rms(c)
DAV:   1    -0.155262485835E+04   -0.30563E-02   -0.27170E-01 11256   0.694E-01    0.935E-02
DAV:   2    -0.155262557692E+04   -0.71856E-03   -0.63846E-03 18032   0.127E-01    0.116E-01
DAV:   3    -0.155262474986E+04    0.82706E-03   -0.28132E-03 17936   0.837E-02    0.492E-02
DAV:   4    -0.155262467865E+04    0.71202E-04   -0.42421E-04 16168   0.282E-02    0.348E-02
DAV:   5    -0.155262463595E+04    0.42704E-04   -0.19905E-04 15608   0.217E-02    0.208E-02
DAV:   6    -0.155262461464E+04    0.21308E-04   -0.96990E-05 14128   0.170E-02    0.118E-02
DAV:   7    -0.155262460580E+04    0.88389E-05   -0.28146E-05  7192   0.961E-03
   9 F= -.15526246E+04 E0= -.15526432E+04  d E =-.280598E-02
       N       E                     dE             d eps       ncg     rms          rms(c)
DAV:   1    -0.155262597583E+04   -0.13612E-02   -0.13639E-01 11284   0.496E-01    0.604E-02
DAV:   2    -0.155262626497E+04   -0.28915E-03   -0.21909E-03 17368   0.687E-02    0.688E-02
DAV:   3    -0.155262601392E+04    0.25105E-03   -0.85118E-04 17888   0.469E-02    0.333E-02
DAV:   4    -0.155262601239E+04    0.15266E-05   -0.16893E-04 15072   0.180E-02    0.204E-02
DAV:   5    -0.155262601449E+04   -0.21015E-05   -0.81361E-05 13408   0.152E-02
  10 F= -.15526260E+04 E0= -.15526445E+04  d E =-.140869E-02
       N       E                     dE             d eps       ncg     rms          rms(c)
DAV:   1    -0.155262688416E+04   -0.87177E-03   -0.40122E-02 11340   0.277E-01    0.508E-02
DAV:   2    -0.155262687886E+04    0.52972E-05   -0.99307E-04 17864   0.497E-02    0.459E-02
DAV:   3    -0.155262676340E+04    0.11547E-03   -0.47687E-04 17864   0.346E-02    0.254E-02
DAV:   4    -0.155262672791E+04    0.35483E-04   -0.11090E-04 14528   0.148E-02    0.163E-02
DAV:   5    -0.155262670339E+04    0.24529E-04   -0.50171E-05 10080   0.120E-02    0.876E-03
DAV:   6    -0.155262669409E+04    0.92975E-05   -0.15842E-05  6848   0.865E-03
  11 F= -.15526267E+04 E0= -.15526452E+04  d E =-.679594E-03
       N       E                     dE             d eps       ncg     rms          rms(c)
DAV:   1    -0.155262735507E+04   -0.65168E-03   -0.61756E-02 11270   0.330E-01    0.354E-02
DAV:   2    -0.155262750216E+04   -0.14709E-03   -0.95433E-04 17600   0.457E-02    0.456E-02
DAV:   3    -0.155262738650E+04    0.11566E-03   -0.36350E-04 17826   0.306E-02    0.207E-02
DAV:   4    -0.155262738676E+04   -0.25743E-06   -0.53144E-05 10416   0.108E-02    0.131E-02
DAV:   5    -0.155262738952E+04   -0.27604E-05   -0.23512E-05  7504   0.995E-03
  12 F= -.15526274E+04 E0= -.15526459E+04  d E =-.695431E-03
       N       E                     dE             d eps       ncg     rms          rms(c)
DAV:   1    -0.155262785253E+04   -0.46577E-03   -0.43152E-02 11312   0.277E-01    0.343E-02
DAV:   2    -0.155262791828E+04   -0.65753E-04   -0.78205E-04 17800   0.423E-02    0.394E-02
DAV:   3    -0.155262782782E+04    0.90454E-04   -0.31211E-04 17832   0.283E-02    0.187E-02
DAV:   4    -0.155262781337E+04    0.14459E-04   -0.43540E-05  9416   0.100E-02    0.125E-02
DAV:   5    -0.155262780320E+04    0.10167E-04   -0.22130E-05  6872   0.874E-03    0.725E-03
DAV:   6    -0.155262779741E+04    0.57852E-05   -0.90955E-06  6352   0.683E-03
  13 F= -.15526278E+04 E0= -.15526463E+04  d E =-.407894E-03
       N       E                     dE             d eps       ncg     rms          rms(c)
DAV:   1    -0.155262800177E+04   -0.19858E-03   -0.12704E-02 11340   0.154E-01    0.213E-02
DAV:   2    -0.155262802114E+04   -0.19364E-04   -0.15378E-04 15816   0.169E-02    0.167E-02
DAV:   3    -0.155262801387E+04    0.72627E-05   -0.38741E-05  9232   0.114E-02    0.111E-02
DAV:   4    -0.155262802098E+04   -0.71076E-05   -0.17532E-05  6320   0.720E-03    0.527E-03
DAV:   5    -0.155262802590E+04   -0.49152E-05   -0.69668E-06  6192   0.553E-03
  14 F= -.15526280E+04 E0= -.15526465E+04  d E =-.228485E-03
       N       E                     dE             d eps       ncg     rms          rms(c)
DAV:   1    -0.155262826826E+04   -0.24728E-03   -0.17704E-02 11312   0.177E-01    0.210E-02
DAV:   2    -0.155262829014E+04   -0.21881E-04   -0.27824E-04 17776   0.257E-02    0.244E-02
DAV:   3    -0.155262825503E+04    0.35114E-04   -0.10828E-04 14528   0.172E-02    0.117E-02
DAV:   4    -0.155262824840E+04    0.66247E-05   -0.16810E-05  6672   0.719E-03    0.783E-03
DAV:   5    -0.155262824246E+04    0.59427E-05   -0.97630E-06  6208   0.614E-03
  15 F= -.15526282E+04 E0= -.15526467E+04  d E =-.216564E-03
       N       E                     dE             d eps       ncg     rms          rms(c)
DAV:   1    -0.155262843310E+04   -0.18469E-03   -0.20590E-02 11298   0.190E-01    0.182E-02
DAV:   2    -0.155262846325E+04   -0.30156E-04   -0.23317E-04 16848   0.211E-02    0.195E-02
DAV:   3    -0.155262844622E+04    0.17030E-04   -0.50952E-05 10249   0.131E-02    0.114E-02
DAV:   4    -0.155262844800E+04   -0.17808E-05   -0.18162E-05  6272   0.682E-03    0.588E-03
DAV:   5    -0.155262845044E+04   -0.24423E-05   -0.83877E-06  6200   0.609E-03
  16 F= -.15526285E+04 E0= -.15526469E+04  d E =-.207984E-03
       N       E                     dE             d eps       ncg     rms          rms(c)
DAV:   1    -0.155262858026E+04   -0.13226E-03   -0.94294E-03 11326   0.130E-01    0.165E-02
DAV:   2    -0.155262857864E+04    0.16186E-05   -0.13560E-04 15720   0.178E-02    0.159E-02
DAV:   3    -0.155262856369E+04    0.14953E-04   -0.45364E-05  9752   0.124E-02    0.868E-03
DAV:   4    -0.155262855807E+04    0.56221E-05   -0.13047E-05  6184   0.624E-03    0.557E-03
DAV:   5    -0.155262855272E+04    0.53467E-05   -0.71177E-06  6016   0.513E-03
  17 F= -.15526286E+04 E0= -.15526470E+04  d E =-.102277E-03
       N       E                     dE             d eps       ncg     rms          rms(c)
DAV:   1    -0.155262863238E+04   -0.74316E-04   -0.49018E-03 11326   0.941E-02    0.114E-02
DAV:   2    -0.155262864166E+04   -0.92776E-05   -0.41199E-05  9280   0.101E-02    0.915E-03
DAV:   3    -0.155262864053E+04    0.11306E-05   -0.13303E-05  6696   0.732E-03    0.620E-03
DAV:   4    -0.155262864524E+04   -0.47109E-05   -0.74766E-06  5952   0.452E-03    0.306E-03
DAV:   5    -0.155262864791E+04   -0.26686E-05   -0.37834E-06  5880   0.365E-03
  18 F= -.15526286E+04 E0= -.15526471E+04  d E =-.951891E-04
       N       E                     dE             d eps       ncg     rms          rms(c)
DAV:   1    -0.155262875331E+04   -0.10807E-03   -0.94177E-03 11298   0.128E-01    0.125E-02
DAV:   2    -0.155262875797E+04   -0.46557E-05   -0.10156E-04 14760   0.137E-02    0.118E-02
DAV:   3    -0.155262875180E+04    0.61704E-05   -0.17317E-05  7225   0.856E-03    0.780E-03
DAV:   4    -0.155262874885E+04    0.29480E-05   -0.89656E-06  5912   0.478E-03    0.443E-03
DAV:   5    -0.155262874670E+04    0.21480E-05   -0.49633E-06  5896   0.443E-03
  19 F= -.15526287E+04 E0= -.15526471E+04  d E =-.987882E-04
       N       E                     dE             d eps       ncg     rms          rms(c)
DAV:   1    -0.155262881270E+04   -0.63854E-04   -0.54216E-03 11312   0.976E-02    0.925E-03
DAV:   2    -0.155262882072E+04   -0.80199E-05   -0.42028E-05  9608   0.101E-02    0.845E-03
DAV:   3    -0.155262881931E+04    0.14127E-05   -0.12687E-05  6536   0.674E-03    0.555E-03
DAV:   4    -0.155262882267E+04   -0.33575E-05   -0.66767E-06  5880   0.392E-03    0.241E-03
DAV:   5    -0.155262882415E+04   -0.14888E-05   -0.31550E-06  5880   0.332E-03
  20 F= -.15526288E+04 E0= -.15526472E+04  d E =-.774550E-04
       N       E                     dE             d eps       ncg     rms          rms(c)
DAV:   1    -0.155262888813E+04   -0.65464E-04   -0.42927E-03 11312   0.870E-02    0.964E-03
DAV:   2    -0.155262888354E+04    0.45939E-05   -0.35487E-05  8568   0.946E-03    0.744E-03
DAV:   3    -0.155262888137E+04    0.21663E-05   -0.12481E-05  6432   0.682E-03    0.528E-03
DAV:   4    -0.155262887815E+04    0.32165E-05   -0.56148E-06  5880   0.393E-03    0.308E-03
DAV:   5    -0.155262887584E+04    0.23144E-05   -0.33654E-06  5880   0.323E-03
  21 F= -.15526289E+04 E0= -.15526473E+04  d E =-.516842E-04
       N       E                     dE             d eps       ncg     rms          rms(c)
DAV:   1    -0.155262891989E+04   -0.41733E-04   -0.31331E-03 11312   0.741E-02    0.760E-03
DAV:   2    -0.155262892460E+04   -0.47114E-05   -0.21075E-05  7064   0.722E-03    0.575E-03
DAV:   3    -0.155262892535E+04   -0.75191E-06   -0.82018E-06  6064   0.503E-03    0.431E-03
DAV:   4    -0.155262892815E+04   -0.27995E-05   -0.51093E-06  5859   0.368E-03    0.188E-03
DAV:   5    -0.155262892956E+04   -0.14066E-05   -0.28129E-06  5859   0.295E-03
  22 F= -.15526289E+04 E0= -.15526473E+04  d E =-.537167E-04
       N       E                     dE             d eps       ncg     rms          rms(c)
DAV:   1    -0.155262898349E+04   -0.55344E-04   -0.43938E-03 11284   0.873E-02    0.830E-03
DAV:   2    -0.155262898199E+04    0.14986E-05   -0.33910E-05  8904   0.835E-03    0.627E-03
DAV:   3    -0.155262898135E+04    0.64004E-06   -0.96726E-06  6058   0.545E-03    0.486E-03
DAV:   4    -0.155262897909E+04    0.22677E-05   -0.51203E-06  5859   0.385E-03    0.233E-03
DAV:   5    -0.155262897801E+04    0.10799E-05   -0.29840E-06  5859   0.304E-03
  23 F= -.15526290E+04 E0= -.15526474E+04  d E =-.484510E-04
       N       E                     dE             d eps       ncg     rms          rms(c)
DAV:   1    -0.155262901017E+04   -0.31086E-04   -0.22513E-03 11298   0.627E-02    0.615E-03
DAV:   2    -0.155262901397E+04   -0.37999E-05   -0.15292E-05  6000   0.602E-03    0.452E-03
DAV:   3    -0.155262901493E+04   -0.95559E-06   -0.60000E-06  5896   0.412E-03    0.344E-03
DAV:   4    -0.155262901715E+04   -0.22195E-05   -0.36449E-06  5859   0.315E-03    0.153E-03
DAV:   5    -0.155262901827E+04   -0.11242E-05   -0.20685E-06  5859   0.248E-03
  24 F= -.15526290E+04 E0= -.15526474E+04  d E =-.402652E-04
       N       E                     dE             d eps       ncg     rms          rms(c)
DAV:   1    -0.155262905589E+04   -0.38740E-04   -0.25330E-03 11284   0.664E-02    0.654E-03
DAV:   2    -0.155262905363E+04    0.22559E-05   -0.17197E-05  7440   0.658E-03    0.492E-03
DAV:   3    -0.155262905308E+04    0.54860E-06   -0.68248E-06  6002   0.458E-03    0.377E-03
DAV:   4    -0.155262905116E+04    0.19267E-05   -0.38932E-06  5838   0.314E-03    0.188E-03
DAV:   5    -0.155262905021E+04    0.94613E-06   -0.22887E-06  5831   0.256E-03
  25 F= -.15526291E+04 E0= -.15526474E+04  d E =-.319380E-04
       N       E                     dE             d eps       ncg     rms          rms(c)
DAV:   1    -0.155262908053E+04   -0.29374E-04   -0.24908E-03 11284   0.657E-02    0.609E-03
DAV:   2    -0.155262908361E+04   -0.30839E-05   -0.16170E-05  6099   0.611E-03    0.455E-03
DAV:   3    -0.155262908452E+04   -0.90231E-06   -0.62948E-06  5859   0.404E-03    0.346E-03
DAV:   4    -0.155262908637E+04   -0.18505E-05   -0.39354E-06  5838   0.325E-03    0.129E-03
DAV:   5    -0.155262908710E+04   -0.73246E-06   -0.21805E-06  5838   0.255E-03
  26 F= -.15526291E+04 E0= -.15526475E+04  d E =-.368897E-04
       N       E                     dE             d eps       ncg     rms          rms(c)
DAV:   1    -0.155262911665E+04   -0.30281E-04   -0.19833E-03 11284   0.587E-02    0.585E-03
DAV:   2    -0.155262911421E+04    0.24420E-05   -0.13798E-05  6835   0.579E-03    0.419E-03
DAV:   3    -0.155262911370E+04    0.50681E-06   -0.56015E-06  5957   0.406E-03    0.328E-03
DAV:   4    -0.155262911200E+04    0.17013E-05   -0.31735E-06  5838   0.293E-03    0.165E-03
DAV:   5    -0.155262911109E+04    0.90969E-06   -0.19289E-06  5838   0.231E-03
  27 F= -.15526291E+04 E0= -.15526475E+04  d E =-.239883E-04
       N       E                     dE             d eps       ncg     rms          rms(c)
DAV:   1    -0.155262913053E+04   -0.18537E-04   -0.13130E-03 11284   0.478E-02    0.466E-03
DAV:   2    -0.155262913311E+04   -0.25739E-05   -0.92142E-06  5958   0.463E-03    0.344E-03
DAV:   3    -0.155262913382E+04   -0.71331E-06   -0.37140E-06  5838   0.319E-03    0.263E-03
DAV:   4    -0.155262913537E+04   -0.15501E-05   -0.22831E-06  5817   0.246E-03    0.116E-03
DAV:   5    -0.155262913614E+04   -0.76666E-06   -0.13233E-06  5817   0.198E-03
  28 F= -.15526291E+04 E0= -.15526475E+04  d E =-.250512E-04
       N       E                     dE             d eps       ncg     rms          rms(c)
DAV:   1    -0.155262916261E+04   -0.27235E-04   -0.21045E-03 11284   0.603E-02    0.548E-03
DAV:   2    -0.155262916158E+04    0.10238E-05   -0.13230E-05  6859   0.560E-03    0.411E-03
DAV:   3    -0.155262916139E+04    0.19139E-06   -0.51170E-06  5884   0.367E-03    0.321E-03
DAV:   4    -0.155262916009E+04    0.12993E-05   -0.30804E-06  5817   0.279E-03    0.126E-03
DAV:   5    -0.155262915975E+04    0.33949E-06   -0.17447E-06  5817   0.219E-03
  29 F= -.15526292E+04 E0= -.15526475E+04  d E =-.236142E-04
       N       E                     dE             d eps       ncg     rms          rms(c)
DAV:   1    -0.155262918018E+04   -0.20086E-04   -0.20230E-03 11284   0.593E-02    0.555E-03
DAV:   2    -0.155262918317E+04   -0.29961E-05   -0.13103E-05  6331   0.547E-03    0.400E-03
DAV:   3    -0.155262918435E+04   -0.11773E-05   -0.51977E-06  5859   0.357E-03    0.285E-03
DAV:   4    -0.155262918596E+04   -0.16121E-05   -0.30458E-06  5817   0.295E-03    0.134E-03
DAV:   5    -0.155262918673E+04   -0.76158E-06   -0.17903E-06  5817   0.230E-03
  30 F= -.15526292E+04 E0= -.15526475E+04  d E =-.269723E-04
       N       E                     dE             d eps       ncg     rms          rms(c)
DAV:   1    -0.155262920047E+04   -0.14510E-04   -0.48931E-04 11284   0.295E-02    0.379E-03
DAV:   2    -0.155262919774E+04    0.27298E-05   -0.46812E-06  5775   0.350E-03    0.254E-03
DAV:   3    -0.155262919714E+04    0.59956E-06   -0.20962E-06  5768   0.279E-03    0.197E-03
DAV:   4    -0.155262919584E+04    0.13028E-05   -0.11449E-06  5775   0.180E-03    0.110E-03
DAV:   5    -0.155262919490E+04    0.94155E-06   -0.70429E-07  5775   0.144E-03
  31 F= -.15526292E+04 E0= -.15526476E+04  d E =-.817465E-05
       N       E                     dE             d eps       ncg     rms          rms(c)
DAV:   1    -0.155262921211E+04   -0.16266E-04   -0.14690E-03 11284   0.504E-02    0.447E-03
DAV:   2    -0.155262921320E+04   -0.10965E-05   -0.87101E-06  6196   0.448E-03    0.339E-03
DAV:   3    -0.155262921355E+04   -0.34718E-06   -0.33033E-06  5796   0.283E-03    0.258E-03
DAV:   4    -0.155262921421E+04   -0.66002E-06   -0.22082E-06  5796   0.237E-03    0.654E-04
DAV:   5    -0.155262921434E+04   -0.12811E-06   -0.10990E-06  5796   0.176E-03
  32 F= -.15526292E+04 E0= -.15526476E+04  d E =-.194392E-04
       N       E                     dE             d eps       ncg     rms          rms(c)
DAV:   1    -0.155262925568E+04   -0.41465E-04   -0.10084E-02 11228   0.132E-01    0.115E-02
DAV:   2    -0.155262925842E+04   -0.27404E-05   -0.92178E-05 14736   0.114E-02    0.889E-03
DAV:   3    -0.155262925651E+04    0.19098E-05   -0.63408E-06  6187   0.476E-03    0.655E-03
DAV:   4    -0.155262925374E+04    0.27663E-05   -0.42313E-06  5944   0.424E-03    0.286E-03
DAV:   5    -0.155262925251E+04    0.12266E-05   -0.20670E-06  5880   0.308E-03
  33 F= -.15526293E+04 E0= -.15526476E+04  d E =-.381743E-04
       N       E                     dE             d eps       ncg     rms          rms(c)
DAV:   1    -0.155262923065E+04    0.23089E-04   -0.26388E-03 11270   0.681E-02    0.726E-03
DAV:   2    -0.155262923408E+04   -0.34266E-05   -0.13546E-05  5945   0.595E-03    0.498E-03
DAV:   3    -0.155262923516E+04   -0.10823E-05   -0.46316E-06  5817   0.382E-03    0.393E-03
DAV:   4    -0.155262923700E+04   -0.18368E-05   -0.27444E-06  5775   0.285E-03    0.169E-03
DAV:   5    -0.155262923816E+04   -0.11583E-05   -0.14747E-06  5775   0.196E-03
  34 F= -.15526292E+04 E0= -.15526476E+04  d E =0.143580E-04
       N       E                     dE             d eps       ncg     rms          rms(c)
DAV:   1    -0.155262926202E+04   -0.25024E-04   -0.34508E-03 11270   0.774E-02    0.648E-03
DAV:   2    -0.155262926247E+04   -0.44928E-06   -0.15518E-05  5977   0.620E-03    0.486E-03
DAV:   3    -0.155262926251E+04   -0.38669E-07   -0.47933E-06  5817   0.343E-03    0.370E-03
DAV:   4    -0.155262926210E+04    0.41031E-06   -0.33117E-06  5775   0.300E-03    0.847E-04
DAV:   5    -0.155262926219E+04   -0.89941E-07   -0.14010E-06  5775   0.197E-03
  35 F= -.15526293E+04 E0= -.15526476E+04  d E =-.240333E-04
       N       E                     dE             d eps       ncg     rms          rms(c)
DAV:   1    -0.155262930932E+04   -0.47217E-04   -0.30221E-02 11200   0.229E-01    0.193E-02
DAV:   2    -0.155262932520E+04   -0.15888E-04   -0.26424E-04 16544   0.191E-02    0.151E-02
DAV:   3    -0.155262932219E+04    0.30166E-05   -0.13030E-05  7042   0.689E-03    0.108E-02
DAV:   4    -0.155262931755E+04    0.46385E-05   -0.11747E-05  6504   0.686E-03    0.328E-03
DAV:   5    -0.155262931706E+04    0.48493E-06   -0.39070E-06  5928   0.400E-03
  36 F= -.15526293E+04 E0= -.15526477E+04  d E =-.548755E-04
       N       E                     dE             d eps       ncg     rms          rms(c)
DAV:   1    -0.155262934011E+04   -0.22556E-04   -0.29015E-02 11186   0.224E-01    0.183E-02
DAV:   2    -0.155262935675E+04   -0.16642E-04   -0.25144E-04 16632   0.187E-02    0.144E-02
DAV:   3    -0.155262935435E+04    0.23926E-05   -0.11644E-05  7009   0.674E-03    0.106E-02
DAV:   4    -0.155262935081E+04    0.35444E-05   -0.11041E-05  6344   0.669E-03    0.334E-03
DAV:   5    -0.155262935050E+04    0.31524E-06   -0.39292E-06  5928   0.426E-03
  37 F= -.15526294E+04 E0= -.15526477E+04  d E =-.334308E-04
       N       E                     dE             d eps       ncg     rms          rms(c)
DAV:   1    -0.155262935549E+04   -0.46770E-05   -0.51232E-03 11228   0.942E-02    0.734E-03
DAV:   2    -0.155262935754E+04   -0.20498E-05   -0.31816E-05  8472   0.822E-03    0.580E-03
DAV:   3    -0.155262935786E+04   -0.32310E-06   -0.92021E-06  5987   0.473E-03    0.451E-03
DAV:   4    -0.155262935761E+04    0.25394E-06   -0.54176E-06  5859   0.355E-03    0.132E-03
DAV:   5    -0.155262935784E+04   -0.23566E-06   -0.27753E-06  5859   0.271E-03
  38 F= -.15526294E+04 E0= -.15526477E+04  d E =-.734687E-05
       N       E                     dE             d eps       ncg     rms          rms(c)
DAV:   1    -0.155262935977E+04   -0.21597E-05   -0.14697E-03 11270   0.502E-02    0.414E-03
DAV:   2    -0.155262936050E+04   -0.73053E-06   -0.10203E-05  5817   0.472E-03    0.321E-03
DAV:   3    -0.155262936079E+04   -0.29144E-06   -0.41555E-06  5817   0.300E-03    0.239E-03
DAV:   4    -0.155262936087E+04   -0.79987E-07   -0.25701E-06  5796   0.245E-03    0.489E-04
DAV:   5    -0.155262936098E+04   -0.11113E-06   -0.13567E-06  5796   0.183E-03
  39 F= -.15526294E+04 E0= -.15526477E+04  d E =-.313712E-05
