       N       E                     dE             d eps       ncg     rms          rms(c)
DAV:   1     0.212159769653E+04    0.21216E+04   -0.28614E+05 11508   0.143E+03
DAV:   2    -0.119461949549E+04   -0.33162E+04   -0.31828E+04 13334   0.288E+02
DAV:   3    -0.161220011038E+04   -0.41758E+03   -0.38351E+03 17840   0.818E+01
DAV:   4    -0.163652814048E+04   -0.24328E+02   -0.22508E+02 16160   0.169E+01
DAV:   5    -0.163757705943E+04   -0.10489E+01   -0.10289E+01 17568   0.423E+00    0.400E+01
DAV:   6    -0.159443200463E+04    0.43145E+02   -0.94330E+01 17432   0.124E+01    0.217E+01
DAV:   7    -0.158473152638E+04    0.97005E+01   -0.81752E+01 16536   0.129E+01    0.156E+01
DAV:   8    -0.157563049009E+04    0.91010E+01   -0.45954E+01 17184   0.116E+01    0.881E+00
DAV:   9    -0.157141851698E+04    0.42120E+01   -0.20505E+01 17792   0.719E+00    0.250E+00
DAV:  10    -0.157139577988E+04    0.22737E-01   -0.36242E+00 16040   0.267E+00    0.147E+00
DAV:  11    -0.157139400956E+04    0.17703E-02   -0.52898E-01 15656   0.105E+00    0.104E+00
DAV:  12    -0.157137326203E+04    0.20748E-01   -0.16316E-01 15744   0.677E-01    0.632E-01
DAV:  13    -0.157135944026E+04    0.13822E-01   -0.65628E-02 15848   0.426E-01    0.292E-01
DAV:  14    -0.157135693256E+04    0.25077E-02   -0.20690E-02 16032   0.189E-01    0.114E-01
DAV:  15    -0.157135678683E+04    0.14573E-03   -0.36943E-03 15648   0.938E-02    0.688E-02
DAV:  16    -0.157135670348E+04    0.83348E-04   -0.97138E-04 15760   0.538E-02    0.470E-02
DAV:  17    -0.157135664500E+04    0.58486E-04   -0.53051E-04 14096   0.361E-02    0.220E-02
DAV:  18    -0.157135662892E+04    0.16076E-04   -0.12872E-04 13800   0.179E-02    0.117E-02
DAV:  19    -0.157135662258E+04    0.63419E-05   -0.30944E-05  8200   0.100E-02
   1 F= -.15713566E+04 E0= -.15713588E+04  d E =-.157136E+04
       N       E                     dE             d eps       ncg     rms          rms(c)
DAV:   1    -0.157840886485E+04   -0.70522E+01   -0.18942E+03 11508   0.658E+01    0.243E+01
DAV:   2    -0.155572498823E+04    0.22684E+02   -0.13977E+02 18272   0.149E+01    0.146E+01
DAV:   3    -0.154876280699E+04    0.69622E+01   -0.71733E+01 20008   0.107E+01    0.968E+00
DAV:   4    -0.154597161752E+04    0.27912E+01   -0.20198E+01 19272   0.677E+00    0.719E+00
DAV:   5    -0.154351856391E+04    0.24531E+01   -0.14202E+01 18432   0.496E+00    0.279E+00
DAV:   6    -0.154328570193E+04    0.23286E+00   -0.32826E+00 17536   0.247E+00    0.166E+00
DAV:   7    -0.154324657804E+04    0.39124E-01   -0.56727E-01 15768   0.110E+00    0.119E+00
DAV:   8    -0.154323059829E+04    0.15980E-01   -0.20535E-01 17592   0.514E-01    0.613E-01
DAV:   9    -0.154323863132E+04   -0.80330E-02   -0.11462E-01 18040   0.347E-01    0.353E-01
DAV:  10    -0.154324046342E+04   -0.18321E-02   -0.25486E-02 17288   0.247E-01    0.279E-01
DAV:  11    -0.154323772382E+04    0.27396E-02   -0.13230E-02 19544   0.167E-01    0.120E-01
DAV:  12    -0.154323765824E+04    0.65574E-04   -0.58757E-03 18080   0.884E-02    0.630E-02
DAV:  13    -0.154323791447E+04   -0.25623E-03   -0.11112E-03 16480   0.439E-02    0.383E-02
DAV:  14    -0.154323796050E+04   -0.46026E-04   -0.42226E-04 18288   0.309E-02    0.240E-02
DAV:  15    -0.154323796883E+04   -0.83343E-05   -0.14515E-04 15264   0.169E-02    0.163E-02
DAV:  16    -0.154323796772E+04    0.11118E-05   -0.43764E-05  8632   0.102E-02
   2 F= -.15432380E+04 E0= -.15432325E+04  d E =0.281187E+02
       N       E                     dE             d eps       ncg     rms          rms(c)
DAV:   1    -0.159483882569E+04   -0.51601E+02   -0.88784E+02 11508   0.500E+01    0.166E+01
DAV:   2    -0.158285490435E+04    0.11984E+02   -0.35061E+01 16192   0.890E+00    0.773E+00
DAV:   3    -0.158081158491E+04    0.20433E+01   -0.16071E+01 16664   0.556E+00    0.561E+00
DAV:   4    -0.157965134508E+04    0.11602E+01   -0.66877E+00 17576   0.449E+00    0.363E+00
DAV:   5    -0.157892380569E+04    0.72754E+00   -0.37905E+00 17160   0.310E+00    0.116E+00
DAV:   6    -0.157889832819E+04    0.25478E-01   -0.79928E-01 15240   0.132E+00    0.698E-01
DAV:   7    -0.157890559575E+04   -0.72676E-02   -0.12586E-01 15592   0.511E-01    0.499E-01
DAV:   8    -0.157890957038E+04   -0.39746E-02   -0.30850E-02 16096   0.240E-01    0.286E-01
DAV:   9    -0.157891868418E+04   -0.91138E-02   -0.32506E-02 16944   0.210E-01    0.212E-01
DAV:  10    -0.157891809260E+04    0.59158E-03   -0.71655E-03 16256   0.139E-01    0.102E-01
DAV:  11    -0.157891803613E+04    0.56478E-04   -0.26473E-03 17288   0.685E-02    0.478E-02
DAV:  12    -0.157891824859E+04   -0.21247E-03   -0.10228E-03 16248   0.447E-02    0.384E-02
DAV:  13    -0.157891836839E+04   -0.11979E-03   -0.31039E-04 14152   0.253E-02    0.210E-02
DAV:  14    -0.157891836673E+04    0.16621E-05   -0.85331E-05 12968   0.128E-02
   3 F= -.15789184E+04 E0= -.15789131E+04  d E =-.356804E+02
       N       E                     dE             d eps       ncg     rms          rms(c)
DAV:   1    -0.157909596643E+04   -0.17760E+00   -0.19229E+01 11508   0.587E+00    0.803E-01
DAV:   2    -0.157910524075E+04   -0.92743E-02   -0.34326E-01 16864   0.705E-01    0.539E-01
DAV:   3    -0.157909960741E+04    0.56333E-02   -0.65749E-02 18664   0.418E-01    0.414E-01
DAV:   4    -0.157909389605E+04    0.57114E-02   -0.23862E-02 18160   0.248E-01    0.233E-01
DAV:   5    -0.157909241850E+04    0.14776E-02   -0.12138E-02 15504   0.159E-01    0.895E-02
DAV:   6    -0.157909229017E+04    0.12833E-03   -0.29626E-03 16120   0.875E-02    0.546E-02
DAV:   7    -0.157909224593E+04    0.44235E-04   -0.76672E-04 16480   0.458E-02    0.388E-02
DAV:   8    -0.157909220684E+04    0.39090E-04   -0.24550E-04 16248   0.240E-02    0.220E-02
DAV:   9    -0.157909220963E+04   -0.27841E-05   -0.88140E-05 13784   0.144E-02
   4 F= -.15790922E+04 E0= -.15790891E+04  d E =-.173843E+00
       N       E                     dE             d eps       ncg     rms          rms(c)
DAV:   1    -0.157911940496E+04   -0.27198E-01   -0.26776E+00 11508   0.218E+00    0.374E-01
DAV:   2    -0.157911947630E+04   -0.71338E-04   -0.68899E-02 17616   0.361E-01    0.266E-01
DAV:   3    -0.157911654578E+04    0.29305E-02   -0.21740E-02 18680   0.242E-01    0.172E-01
DAV:   4    -0.157911541788E+04    0.11279E-02   -0.49935E-03 19120   0.110E-01    0.110E-01
DAV:   5    -0.157911501846E+04    0.39942E-03   -0.21656E-03 16160   0.673E-02    0.546E-02
DAV:   6    -0.157911490400E+04    0.11446E-03   -0.85527E-04 15704   0.461E-02    0.275E-02
DAV:   7    -0.157911488651E+04    0.17485E-04   -0.19123E-04 15272   0.231E-02    0.187E-02
DAV:   8    -0.157911488675E+04   -0.23851E-06   -0.55715E-05 11072   0.108E-02
   5 F= -.15791149E+04 E0= -.15791107E+04  d E =-.226771E-01
       N       E                     dE             d eps       ncg     rms          rms(c)
DAV:   1    -0.157912320281E+04   -0.83163E-02   -0.60974E-01 11532   0.108E+00    0.193E-01
DAV:   2    -0.157912264227E+04    0.56054E-03   -0.93584E-03 16736   0.129E-01    0.119E-01
DAV:   3    -0.157912238875E+04    0.25352E-03   -0.31862E-03 18776   0.941E-02    0.949E-02
DAV:   4    -0.157912204058E+04    0.34818E-03   -0.12920E-03 16920   0.574E-02    0.414E-02
DAV:   5    -0.157912203465E+04    0.59271E-05   -0.58867E-04 15336   0.368E-02    0.178E-02
DAV:   6    -0.157912203360E+04    0.10475E-05   -0.11754E-04 14024   0.184E-02    0.127E-02
DAV:   7    -0.157912202933E+04    0.42687E-05   -0.23613E-05  7664   0.926E-03
   6 F= -.15791220E+04 E0= -.15791185E+04  d E =-.714258E-02
       N       E                     dE             d eps       ncg     rms          rms(c)
DAV:   1    -0.157912796244E+04   -0.59288E-02   -0.35641E-01 11526   0.806E-01    0.152E-01
DAV:   2    -0.157912770579E+04    0.25665E-03   -0.87507E-03 17512   0.136E-01    0.108E-01
DAV:   3    -0.157912718905E+04    0.51673E-03   -0.33676E-03 18680   0.967E-02    0.694E-02
DAV:   4    -0.157912697545E+04    0.21361E-03   -0.81472E-04 18160   0.440E-02    0.432E-02
DAV:   5    -0.157912687686E+04    0.98585E-04   -0.37862E-04 15784   0.290E-02    0.200E-02
DAV:   6    -0.157912685092E+04    0.25943E-04   -0.12271E-04 14304   0.185E-02    0.109E-02
DAV:   7    -0.157912684724E+04    0.36810E-05   -0.25718E-05  7712   0.943E-03
   7 F= -.15791268E+04 E0= -.15791229E+04  d E =-.481790E-02
       N       E                     dE             d eps       ncg     rms          rms(c)
DAV:   1    -0.157912923153E+04   -0.23806E-02   -0.24980E-01 11532   0.654E-01    0.741E-02
DAV:   2    -0.157912953888E+04   -0.30735E-03   -0.33349E-03 17408   0.820E-02    0.691E-02
DAV:   3    -0.157912933384E+04    0.20504E-03   -0.93130E-04 18133   0.528E-02    0.429E-02
DAV:   4    -0.157912931271E+04    0.21123E-04   -0.22161E-04 16440   0.219E-02    0.251E-02
DAV:   5    -0.157912930897E+04    0.37420E-05   -0.12694E-04 14304   0.174E-02    0.860E-03
DAV:   6    -0.157912930727E+04    0.16967E-05   -0.25296E-05  7816   0.998E-03
   8 F= -.15791293E+04 E0= -.15791254E+04  d E =-.246004E-02
       N       E                     dE             d eps       ncg     rms          rms(c)
DAV:   1    -0.157913061211E+04   -0.13031E-02   -0.98224E-02 11541   0.417E-01    0.651E-02
DAV:   2    -0.157913057652E+04    0.35598E-04   -0.16844E-03 17288   0.595E-02    0.486E-02
DAV:   3    -0.157913047337E+04    0.10315E-03   -0.60136E-04 18530   0.412E-02    0.321E-02
DAV:   4    -0.157913042487E+04    0.48501E-04   -0.14690E-04 15896   0.185E-02    0.201E-02
DAV:   5    -0.157913039452E+04    0.30350E-04   -0.71805E-05 12744   0.136E-02    0.868E-03
DAV:   6    -0.157913038729E+04    0.72218E-05   -0.19280E-05  7328   0.904E-03
   9 F= -.15791304E+04 E0= -.15791263E+04  d E =-.108002E-02
       N       E                     dE             d eps       ncg     rms          rms(c)
DAV:   1    -0.157913123101E+04   -0.83649E-03   -0.54953E-02 11538   0.311E-01    0.427E-02
DAV:   2    -0.157913125886E+04   -0.27847E-04   -0.60426E-04 16688   0.336E-02    0.297E-02
DAV:   3    -0.157913124454E+04    0.14317E-04   -0.15851E-04 16693   0.218E-02    0.227E-02
DAV:   4    -0.157913124260E+04    0.19421E-05   -0.51781E-05 11232   0.117E-02    0.933E-03
DAV:   5    -0.157913124984E+04   -0.72385E-05   -0.18561E-05  7088   0.809E-03
  10 F= -.15791312E+04 E0= -.15791273E+04  d E =-.862541E-03
       N       E                     dE             d eps       ncg     rms          rms(c)
DAV:   1    -0.157913203619E+04   -0.79359E-03   -0.70055E-02 11538   0.345E-01    0.388E-02
DAV:   2    -0.157913206749E+04   -0.31307E-04   -0.80074E-04 17024   0.393E-02    0.323E-02
DAV:   3    -0.157913202969E+04    0.37803E-04   -0.19415E-04 17056   0.242E-02    0.224E-02
DAV:   4    -0.157913201138E+04    0.18311E-04   -0.46358E-05 10176   0.108E-02    0.133E-02
DAV:   5    -0.157913199945E+04    0.11926E-04   -0.22740E-05  7096   0.880E-03    0.422E-03
DAV:   6    -0.157913199834E+04    0.11129E-05   -0.64066E-06  6536   0.584E-03
  11 F= -.15791320E+04 E0= -.15791280E+04  d E =-.748505E-03
       N       E                     dE             d eps       ncg     rms          rms(c)
DAV:   1    -0.157913257335E+04   -0.57390E-03   -0.59083E-02 11520   0.317E-01    0.328E-02
DAV:   2    -0.157913261744E+04   -0.44090E-04   -0.54443E-04 16704   0.304E-02    0.254E-02
DAV:   3    -0.157913260696E+04    0.10485E-04   -0.78728E-05 13652   0.161E-02    0.196E-02
DAV:   4    -0.157913260809E+04   -0.11331E-05   -0.36183E-05  8704   0.973E-03    0.618E-03
DAV:   5    -0.157913261111E+04   -0.30201E-05   -0.10014E-05  6672   0.665E-03
  12 F= -.15791326E+04 E0= -.15791287E+04  d E =-.612770E-03
       N       E                     dE             d eps       ncg     rms          rms(c)
DAV:   1    -0.157913293319E+04   -0.32510E-03   -0.14918E-02 11544   0.163E-01    0.249E-02
DAV:   2    -0.157913290808E+04    0.25116E-04   -0.19781E-04 16848   0.192E-02    0.161E-02
DAV:   3    -0.157913289684E+04    0.11236E-04   -0.47038E-05 10285   0.129E-02    0.120E-02
DAV:   4    -0.157913288480E+04    0.12035E-04   -0.16808E-05  7120   0.831E-03    0.675E-03
DAV:   5    -0.157913287553E+04    0.92732E-05   -0.93588E-06  6168   0.574E-03
  13 F= -.15791329E+04 E0= -.15791289E+04  d E =-.264421E-03
       N       E                     dE             d eps       ncg     rms          rms(c)
DAV:   1    -0.157913327329E+04   -0.38849E-03   -0.35819E-02 11526   0.246E-01    0.242E-02
DAV:   2    -0.157913329900E+04   -0.25705E-04   -0.31003E-04 16808   0.224E-02    0.187E-02
DAV:   3    -0.157913329497E+04    0.40325E-05   -0.26166E-05  8588   0.106E-02    0.149E-02
DAV:   4    -0.157913329649E+04   -0.15265E-05   -0.23976E-05  6696   0.817E-03    0.329E-03
DAV:   5    -0.157913329725E+04   -0.75537E-06   -0.59178E-06  6242   0.551E-03
  14 F= -.15791333E+04 E0= -.15791293E+04  d E =-.421716E-03
       N       E                     dE             d eps       ncg     rms          rms(c)
DAV:   1    -0.157913370349E+04   -0.40700E-03   -0.45177E-02 11520   0.276E-01    0.275E-02
DAV:   2    -0.157913371571E+04   -0.12219E-04   -0.41673E-04 16896   0.263E-02    0.212E-02
DAV:   3    -0.157913370551E+04    0.10202E-04   -0.50522E-05 10885   0.133E-02    0.165E-02
DAV:   4    -0.157913369319E+04    0.12319E-04   -0.23153E-05  7160   0.858E-03    0.800E-03
DAV:   5    -0.157913368725E+04    0.59396E-05   -0.11270E-05  6304   0.674E-03
  15 F= -.15791337E+04 E0= -.15791297E+04  d E =-.390003E-03
       N       E                     dE             d eps       ncg     rms          rms(c)
DAV:   1    -0.157913382543E+04   -0.13224E-03   -0.63689E-03 11550   0.107E-01    0.159E-02
DAV:   2    -0.157913383398E+04   -0.85425E-05   -0.65882E-05 12984   0.111E-02    0.938E-03
DAV:   3    -0.157913383728E+04   -0.33015E-05   -0.14087E-05  7312   0.722E-03    0.728E-03
DAV:   4    -0.157913384068E+04   -0.34003E-05   -0.57411E-06  6288   0.535E-03    0.349E-03
DAV:   5    -0.157913384458E+04   -0.39035E-05   -0.33224E-06  6054   0.344E-03
  16 F= -.15791338E+04 E0= -.15791299E+04  d E =-.157331E-03
       N       E                     dE             d eps       ncg     rms          rms(c)
DAV:   1    -0.157913410848E+04   -0.26780E-03   -0.21978E-02 11532   0.193E-01    0.198E-02
DAV:   2    -0.157913411062E+04   -0.21385E-05   -0.20239E-04 16504   0.178E-02    0.148E-02
DAV:   3    -0.157913410535E+04    0.52666E-05   -0.17493E-05  7799   0.863E-03    0.116E-02
DAV:   4    -0.157913409767E+04    0.76780E-05   -0.12200E-05  6416   0.657E-03    0.528E-03
DAV:   5    -0.157913409415E+04    0.35218E-05   -0.59429E-06  6093   0.495E-03
  17 F= -.15791341E+04 E0= -.15791301E+04  d E =-.249568E-03
       N       E                     dE             d eps       ncg     rms          rms(c)
DAV:   1    -0.157913433848E+04   -0.24081E-03   -0.26598E-02 11520   0.212E-01    0.195E-02
DAV:   2    -0.157913435765E+04   -0.19170E-04   -0.22624E-04 16752   0.187E-02    0.150E-02
DAV:   3    -0.157913435647E+04    0.11802E-05   -0.13771E-05  7602   0.783E-03    0.118E-02
DAV:   4    -0.157913435746E+04   -0.98686E-06   -0.14397E-05  6440   0.687E-03    0.267E-03
DAV:   5    -0.157913435786E+04   -0.40340E-06   -0.37371E-06  6087   0.439E-03
  18 F= -.15791344E+04 E0= -.15791304E+04  d E =-.263712E-03
       N       E                     dE             d eps       ncg     rms          rms(c)
DAV:   1    -0.157913451342E+04   -0.15596E-03   -0.10336E-02 11538   0.133E-01    0.160E-02
DAV:   2    -0.157913450383E+04    0.95847E-05   -0.10396E-04 15216   0.130E-02    0.105E-02
DAV:   3    -0.157913449879E+04    0.50449E-05   -0.13028E-05  7162   0.699E-03    0.783E-03
DAV:   4    -0.157913449332E+04    0.54659E-05   -0.62205E-06  6192   0.562E-03    0.450E-03
DAV:   5    -0.157913448853E+04    0.47884E-05   -0.38840E-06  6037   0.376E-03
  19 F= -.15791345E+04 E0= -.15791305E+04  d E =-.130671E-03
       N       E                     dE             d eps       ncg     rms          rms(c)
DAV:   1    -0.157913461619E+04   -0.12287E-03   -0.85794E-03 11532   0.121E-01    0.133E-02
DAV:   2    -0.157913462526E+04   -0.90636E-05   -0.72748E-05 13448   0.110E-02    0.921E-03
DAV:   3    -0.157913462728E+04   -0.20257E-05   -0.98287E-06  6671   0.587E-03    0.686E-03
DAV:   4    -0.157913462996E+04   -0.26807E-05   -0.49652E-06  6087   0.471E-03    0.263E-03
DAV:   5    -0.157913463188E+04   -0.19190E-05   -0.23575E-06  5985   0.303E-03
  20 F= -.15791346E+04 E0= -.15791307E+04  d E =-.143349E-03
       N       E                     dE             d eps       ncg     rms          rms(c)
DAV:   1    -0.157913479624E+04   -0.16628E-03   -0.15912E-02 11526   0.164E-01    0.156E-02
DAV:   2    -0.157913479997E+04   -0.37330E-05   -0.13988E-04 16160   0.144E-02    0.118E-02
DAV:   3    -0.157913479685E+04    0.31251E-05   -0.91712E-06  6914   0.599E-03    0.870E-03
DAV:   4    -0.157913479213E+04    0.47165E-05   -0.70776E-06  6264   0.551E-03    0.319E-03
DAV:   5    -0.157913479075E+04    0.13761E-05   -0.29284E-06  6001   0.371E-03
  21 F= -.15791348E+04 E0= -.15791308E+04  d E =-.158873E-03
       N       E                     dE             d eps       ncg     rms          rms(c)
DAV:   1    -0.157913490900E+04   -0.11687E-03   -0.11158E-02 11526   0.138E-01    0.138E-02
DAV:   2    -0.157913491974E+04   -0.10743E-04   -0.96436E-05 15024   0.123E-02    0.988E-03
DAV:   3    -0.157913492118E+04   -0.14375E-05   -0.85528E-06  6677   0.565E-03    0.718E-03
DAV:   4    -0.157913492352E+04   -0.23366E-05   -0.50546E-06  6093   0.493E-03    0.285E-03
DAV:   5    -0.157913492519E+04   -0.16752E-05   -0.23584E-06  5907   0.322E-03
  22 F= -.15791349E+04 E0= -.15791310E+04  d E =-.134438E-03
       N       E                     dE             d eps       ncg     rms          rms(c)
DAV:   1    -0.157913500785E+04   -0.84337E-04   -0.40879E-03 11544   0.839E-02    0.105E-02
DAV:   2    -0.157913499950E+04    0.83583E-05   -0.27444E-05  8040   0.830E-03    0.649E-03
DAV:   3    -0.157913499701E+04    0.24878E-05   -0.99843E-06  6293   0.579E-03    0.484E-03
DAV:   4    -0.157913499342E+04    0.35844E-05   -0.50299E-06  5907   0.436E-03    0.233E-03
DAV:   5    -0.157913499159E+04    0.18364E-05   -0.29955E-06  5874   0.296E-03
  23 F= -.15791350E+04 E0= -.15791310E+04  d E =-.663947E-04
       N       E                     dE             d eps       ncg     rms          rms(c)
DAV:   1    -0.157913509078E+04   -0.97361E-04   -0.93146E-03 11520   0.125E-01    0.124E-02
DAV:   2    -0.157913509948E+04   -0.86962E-05   -0.86900E-05 14856   0.113E-02    0.926E-03
DAV:   3    -0.157913510024E+04   -0.75460E-06   -0.70414E-06  6316   0.500E-03    0.647E-03
DAV:   4    -0.157913510177E+04   -0.15304E-05   -0.44949E-06  6045   0.452E-03    0.215E-03
DAV:   5    -0.157913510242E+04   -0.65875E-06   -0.17672E-06  5841   0.296E-03
  24 F= -.15791351E+04 E0= -.15791312E+04  d E =-.110837E-03
       N       E                     dE             d eps       ncg     rms          rms(c)
DAV:   1    -0.157913517889E+04   -0.77124E-04   -0.52268E-03 11532   0.939E-02    0.933E-03
DAV:   2    -0.157913517596E+04    0.29270E-05   -0.33236E-05  8808   0.853E-03    0.654E-03
DAV:   3    -0.157913517467E+04    0.12918E-05   -0.95283E-06  6157   0.519E-03    0.473E-03
DAV:   4    -0.157913517204E+04    0.26335E-05   -0.49824E-06  5850   0.409E-03    0.188E-03
DAV:   5    -0.157913517127E+04    0.76906E-06   -0.27859E-06  5817   0.288E-03
  25 F= -.15791352E+04 E0= -.15791312E+04  d E =-.688443E-04
       N       E                     dE             d eps       ncg     rms          rms(c)
DAV:   1    -0.157913524864E+04   -0.76606E-04   -0.77691E-03 11520   0.114E-01    0.116E-02
DAV:   2    -0.157913525685E+04   -0.82086E-05   -0.71440E-05 13344   0.104E-02    0.845E-03
DAV:   3    -0.157913525831E+04   -0.14598E-05   -0.78088E-06  6236   0.505E-03    0.570E-03
DAV:   4    -0.157913526025E+04   -0.19348E-05   -0.38064E-06  5930   0.425E-03    0.235E-03
DAV:   5    -0.157913526132E+04   -0.10756E-05   -0.18104E-06  5811   0.285E-03
  26 F= -.15791353E+04 E0= -.15791314E+04  d E =-.900536E-04
       N       E                     dE             d eps       ncg     rms          rms(c)
DAV:   1    -0.157913530454E+04   -0.44292E-04   -0.17155E-03 11544   0.544E-02    0.686E-03
DAV:   2    -0.157913529939E+04    0.51448E-05   -0.11925E-05  5849   0.544E-03    0.421E-03
DAV:   3    -0.157913529773E+04    0.16637E-05   -0.45283E-06  5817   0.381E-03    0.311E-03
DAV:   4    -0.157913529559E+04    0.21358E-05   -0.23157E-06  5817   0.290E-03    0.152E-03
DAV:   5    -0.157913529439E+04    0.12048E-05   -0.13818E-06  5817   0.200E-03
  27 F= -.15791353E+04 E0= -.15791314E+04  d E =-.330672E-04
       N       E                     dE             d eps       ncg     rms          rms(c)
DAV:   1    -0.157913536191E+04   -0.66319E-04   -0.68692E-03 11520   0.107E-01    0.102E-02
DAV:   2    -0.157913536729E+04   -0.53720E-05   -0.56318E-05 11864   0.951E-03    0.779E-03
DAV:   3    -0.157913536797E+04   -0.68725E-06   -0.80298E-06  6266   0.502E-03    0.511E-03
DAV:   4    -0.157913536903E+04   -0.10559E-05   -0.40884E-06  5850   0.405E-03    0.144E-03
DAV:   5    -0.157913536919E+04   -0.15818E-06   -0.15749E-06  5820   0.260E-03
  28 F= -.15791354E+04 E0= -.15791315E+04  d E =-.747975E-04
       N       E                     dE             d eps       ncg     rms          rms(c)
DAV:   1    -0.157913542747E+04   -0.58440E-04   -0.49057E-03 11520   0.911E-02    0.941E-03
DAV:   2    -0.157913542348E+04    0.39851E-05   -0.32022E-05  8544   0.833E-03    0.637E-03
DAV:   3    -0.157913542154E+04    0.19393E-05   -0.98533E-06  6113   0.506E-03    0.422E-03
DAV:   4    -0.157913541936E+04    0.21847E-05   -0.49119E-06  5817   0.404E-03    0.209E-03
DAV:   5    -0.157913541832E+04    0.10353E-05   -0.28836E-06  5817   0.294E-03
  29 F= -.15791354E+04 E0= -.15791315E+04  d E =-.491369E-04
       N       E                     dE             d eps       ncg     rms          rms(c)
DAV:   1    -0.157913544769E+04   -0.28326E-04   -0.17921E-03 11520   0.555E-02    0.717E-03
DAV:   2    -0.157913545179E+04   -0.41085E-05   -0.13671E-05  5865   0.573E-03    0.448E-03
DAV:   3    -0.157913545378E+04   -0.19904E-05   -0.55483E-06  5808   0.413E-03    0.322E-03
DAV:   4    -0.157913545564E+04   -0.18521E-05   -0.29475E-06  5817   0.317E-03    0.156E-03
DAV:   5    -0.157913545694E+04   -0.13053E-05   -0.17652E-06  5817   0.225E-03
  30 F= -.15791355E+04 E0= -.15791316E+04  d E =-.386178E-04
       N       E                     dE             d eps       ncg     rms          rms(c)
DAV:   1    -0.157913550145E+04   -0.45818E-04   -0.33600E-03 11520   0.751E-02    0.758E-03
DAV:   2    -0.157913549964E+04    0.18134E-05   -0.20562E-05  8032   0.699E-03    0.535E-03
DAV:   3    -0.157913549877E+04    0.87405E-06   -0.77534E-06  6137   0.442E-03    0.361E-03
DAV:   4    -0.157913549727E+04    0.15022E-05   -0.43320E-06  5817   0.368E-03    0.136E-03
DAV:   5    -0.157913549700E+04    0.26337E-06   -0.24632E-06  5817   0.269E-03
  31 F= -.15791355E+04 E0= -.15791316E+04  d E =-.400599E-04
       N       E                     dE             d eps       ncg     rms          rms(c)
DAV:   1    -0.157913554220E+04   -0.44938E-04   -0.54493E-03 11520   0.956E-02    0.917E-03
DAV:   2    -0.157913554737E+04   -0.51700E-05   -0.45206E-05 10496   0.876E-03    0.686E-03
DAV:   3    -0.157913554860E+04   -0.12291E-05   -0.82576E-06  6079   0.484E-03    0.432E-03
DAV:   4    -0.157913555005E+04   -0.14443E-05   -0.39818E-06  5826   0.388E-03    0.145E-03
DAV:   5    -0.157913555043E+04   -0.38562E-06   -0.19132E-06  5826   0.265E-03
  32 F= -.15791356E+04 E0= -.15791317E+04  d E =-.534302E-04
       N       E                     dE             d eps       ncg     rms          rms(c)
DAV:   1    -0.157913556519E+04   -0.15139E-04   -0.29607E-04 11440   0.234E-02    0.445E-03
DAV:   2    -0.157913556091E+04    0.42794E-05   -0.38501E-06  5808   0.311E-03    0.231E-03
DAV:   3    -0.157913555953E+04    0.13805E-05   -0.16552E-06  5808   0.254E-03    0.176E-03
DAV:   4    -0.157913555822E+04    0.13051E-05   -0.77870E-07  5808   0.177E-03    0.881E-04
DAV:   5    -0.157913555723E+04    0.98895E-06   -0.46685E-07  5808   0.117E-03
  33 F= -.15791356E+04 E0= -.15791316E+04  d E =-.679923E-05
       N       E                     dE             d eps       ncg     rms          rms(c)
DAV:   1    -0.157913559050E+04   -0.32277E-04   -0.32395E-03 11520   0.737E-02    0.691E-03
DAV:   2    -0.157913559215E+04   -0.16533E-05   -0.17483E-05  7199   0.646E-03    0.507E-03
DAV:   3    -0.157913559284E+04   -0.69355E-06   -0.64499E-06  5987   0.389E-03    0.315E-03
DAV:   4    -0.157913559353E+04   -0.68499E-06   -0.38249E-06  5817   0.342E-03    0.846E-04
DAV:   5    -0.157913559363E+04   -0.10555E-06   -0.19191E-06  5814   0.234E-03
  34 F= -.15791356E+04 E0= -.15791317E+04  d E =-.364031E-04
       N       E                     dE             d eps       ncg     rms          rms(c)
DAV:   1    -0.157913566103E+04   -0.67505E-04   -0.16095E-02 11514   0.164E-01    0.156E-02
DAV:   2    -0.157913566500E+04   -0.39615E-05   -0.14731E-04 16224   0.146E-02    0.117E-02
DAV:   3    -0.157913566047E+04    0.45239E-05   -0.93173E-06  6637   0.540E-03    0.725E-03
DAV:   4    -0.157913565727E+04    0.32048E-05   -0.61140E-06  6288   0.554E-03    0.343E-03
DAV:   5    -0.157913565575E+04    0.15129E-05   -0.26526E-06  5929   0.399E-03
  35 F= -.15791357E+04 E0= -.15791317E+04  d E =-.621194E-04
       N       E                     dE             d eps       ncg     rms          rms(c)
DAV:   1    -0.157913562211E+04    0.35160E-04   -0.41491E-03 11520   0.841E-02    0.981E-03
DAV:   2    -0.157913562605E+04   -0.39428E-05   -0.22098E-05  6911   0.752E-03    0.630E-03
DAV:   3    -0.157913562845E+04   -0.23960E-05   -0.77162E-06  5814   0.470E-03    0.415E-03
DAV:   4    -0.157913563012E+04   -0.16778E-05   -0.39264E-06  5808   0.388E-03    0.187E-03
DAV:   5    -0.157913563134E+04   -0.12197E-05   -0.21748E-06  5808   0.253E-03
  36 F= -.15791356E+04 E0= -.15791317E+04  d E =0.244105E-04
       N       E                     dE             d eps       ncg     rms          rms(c)
DAV:   1    -0.157913567015E+04   -0.40031E-04   -0.54091E-03 11520   0.954E-02    0.847E-03
DAV:   2    -0.157913567097E+04   -0.81942E-06   -0.24503E-05  6983   0.786E-03    0.622E-03
DAV:   3    -0.157913567094E+04    0.36571E-07   -0.74946E-06  5814   0.433E-03    0.421E-03
DAV:   4    -0.157913567056E+04    0.37868E-06   -0.46864E-06  5808   0.387E-03    0.101E-03
DAV:   5    -0.157913567068E+04   -0.12378E-06   -0.20690E-06  5808   0.252E-03
  37 F= -.15791357E+04 E0= -.15791318E+04  d E =-.393388E-04
       N       E                     dE             d eps       ncg     rms          rms(c)
DAV:   1    -0.157913575320E+04   -0.82643E-04   -0.55305E-02 11508   0.304E-01    0.274E-02
DAV:   2    -0.157913578111E+04   -0.27907E-04   -0.46848E-04 16928   0.263E-02    0.212E-02
DAV:   3    -0.157913577361E+04    0.74951E-05   -0.31283E-05  9037   0.982E-03    0.129E-02
DAV:   4    -0.157913576774E+04    0.58715E-05   -0.21487E-05  8040   0.998E-03    0.434E-03
DAV:   5    -0.157913576674E+04    0.99897E-06   -0.63935E-06  6282   0.598E-03
  38 F= -.15791358E+04 E0= -.15791319E+04  d E =-.960601E-04
       N       E                     dE             d eps       ncg     rms          rms(c)
DAV:   1    -0.157913580631E+04   -0.38573E-04   -0.64136E-02 11508   0.328E-01    0.292E-02
DAV:   2    -0.157913583986E+04   -0.33544E-04   -0.53947E-04 16896   0.282E-02    0.225E-02
DAV:   3    -0.157913583218E+04    0.76762E-05   -0.36128E-05  9576   0.104E-02    0.146E-02
DAV:   4    -0.157913582579E+04    0.63960E-05   -0.24843E-05  8104   0.104E-02    0.508E-03
DAV:   5    -0.157913582440E+04    0.13830E-05   -0.79746E-06  6456   0.698E-03
  39 F= -.15791358E+04 E0= -.15791319E+04  d E =-.576610E-04
       N       E                     dE             d eps       ncg     rms          rms(c)
DAV:   1    -0.157913582582E+04   -0.30432E-07   -0.49998E-03 11520   0.917E-02    0.798E-03
DAV:   2    -0.157913583068E+04   -0.48671E-05   -0.34945E-05  9056   0.846E-03    0.610E-03
DAV:   3    -0.157913583149E+04   -0.80790E-06   -0.89057E-06  6232   0.494E-03    0.467E-03
DAV:   4    -0.157913583333E+04   -0.18383E-05   -0.49714E-06  5898   0.365E-03    0.166E-03
DAV:   5    -0.157913583410E+04   -0.77204E-06   -0.25884E-06  5881   0.286E-03
  40 F= -.15791358E+04 E0= -.15791320E+04  d E =-.969881E-05
       N       E                     dE             d eps       ncg     rms          rms(c)
DAV:   1    -0.157913583424E+04   -0.91228E-06   -0.17214E-03 11520   0.541E-02    0.563E-03
DAV:   2    -0.157913583132E+04    0.29267E-05   -0.76103E-06  5824   0.454E-03    0.380E-03
DAV:   3    -0.157913582976E+04    0.15595E-05   -0.22777E-06  5805   0.264E-03    0.244E-03
DAV:   4    -0.157913582819E+04    0.15637E-05   -0.12168E-06  5808   0.228E-03    0.971E-04
DAV:   5    -0.157913582777E+04    0.42049E-06   -0.62123E-07  5808   0.150E-03
  41 F= -.15791358E+04 E0= -.15791320E+04  d E =0.633014E-05
       N       E                     dE             d eps       ncg     rms          rms(c)
DAV:   1    -0.157913583022E+04   -0.20253E-05   -0.49734E-04 11526   0.290E-02    0.257E-03
DAV:   2    -0.157913583040E+04   -0.18379E-06   -0.21745E-06  5790   0.243E-03    0.192E-03
DAV:   3    -0.157913583042E+04   -0.19613E-07   -0.59402E-07  5787   0.135E-03    0.147E-03
DAV:   4    -0.157913583049E+04   -0.69712E-07   -0.42765E-07  5790   0.113E-03    0.386E-04
DAV:   5    -0.157913583052E+04   -0.26550E-07   -0.17927E-07  5790   0.796E-04
  42 F= -.15791358E+04 E0= -.15791320E+04  d E =-.274549E-05
       N       E                     dE             d eps       ncg     rms          rms(c)
DAV:   1    -0.157913583206E+04   -0.15731E-05   -0.14545E-03 11520   0.494E-02    0.450E-03
DAV:   2    -0.157913583336E+04   -0.12991E-05   -0.78756E-06  5798   0.435E-03    0.331E-03
DAV:   3    -0.157913583388E+04   -0.52079E-06   -0.28181E-06  5787   0.260E-03    0.227E-03
DAV:   4    -0.157913583462E+04   -0.73968E-06   -0.16938E-06  5790   0.224E-03    0.490E-04
DAV:   5    -0.157913583467E+04   -0.48102E-07   -0.83893E-07  5787   0.154E-03
  43 F= -.15791358E+04 E0= -.15791320E+04  d E =-.415420E-05
