       N       E                     dE             d eps       ncg     rms          rms(c)
DAV:   1     0.244384103052E+04    0.24438E+04   -0.30263E+05 12064   0.144E+03
DAV:   2    -0.119778440326E+04   -0.36416E+04   -0.34883E+04 13892   0.321E+02
DAV:   3    -0.166762067967E+04   -0.46984E+03   -0.44090E+03 18464   0.823E+01
DAV:   4    -0.169280336257E+04   -0.25183E+02   -0.23954E+02 16872   0.180E+01
DAV:   5    -0.169385789965E+04   -0.10545E+01   -0.10381E+01 18808   0.403E+00    0.439E+01
DAV:   6    -0.164500637980E+04    0.48852E+02   -0.17226E+02 18184   0.184E+01    0.243E+01
DAV:   7    -0.163056251763E+04    0.14444E+02   -0.10341E+02 19056   0.170E+01    0.175E+01
DAV:   8    -0.161903406568E+04    0.11528E+02   -0.62062E+01 17704   0.124E+01    0.829E+00
DAV:   9    -0.161539723187E+04    0.36368E+01   -0.23362E+01 17256   0.790E+00    0.241E+00
DAV:  10    -0.161547692323E+04   -0.79691E-01   -0.42065E+00 16872   0.293E+00    0.161E+00
DAV:  11    -0.161544691720E+04    0.30006E-01   -0.50260E-01 15704   0.108E+00    0.109E+00
DAV:  12    -0.161541122386E+04    0.35693E-01   -0.18573E-01 14400   0.690E-01    0.515E-01
DAV:  13    -0.161540408769E+04    0.71362E-02   -0.42493E-02 15040   0.346E-01    0.237E-01
DAV:  14    -0.161540276539E+04    0.13223E-02   -0.11672E-02 15520   0.175E-01    0.126E-01
DAV:  15    -0.161540233269E+04    0.43270E-03   -0.40166E-03 15192   0.978E-02    0.603E-02
DAV:  16    -0.161540237163E+04   -0.38945E-04   -0.11163E-03 15968   0.489E-02    0.339E-02
DAV:  17    -0.161540236371E+04    0.79168E-05   -0.26405E-04 15920   0.288E-02    0.148E-02
DAV:  18    -0.161540235832E+04    0.53989E-05   -0.71264E-05 13920   0.157E-02
   1 F= -.16154024E+04 E0= -.16154005E+04  d E =-.161540E+04
       N       E                     dE             d eps       ncg     rms          rms(c)
DAV:   1    -0.161720705585E+04   -0.18047E+01   -0.65084E+02 12040   0.369E+01    0.121E+01
DAV:   2    -0.161095990367E+04    0.62472E+01   -0.25905E+01 16856   0.741E+00    0.627E+00
DAV:   3    -0.160931643114E+04    0.16435E+01   -0.12312E+01 18336   0.548E+00    0.450E+00
DAV:   4    -0.160838808389E+04    0.92835E+00   -0.44074E+00 18544   0.362E+00    0.269E+00
DAV:   5    -0.160799792782E+04    0.39016E+00   -0.25382E+00 16264   0.244E+00    0.808E-01
DAV:   6    -0.160799556637E+04    0.23614E-02   -0.42590E-01 15608   0.101E+00    0.568E-01
DAV:   7    -0.160799285240E+04    0.27140E-02   -0.76183E-02 15520   0.428E-01    0.402E-01
DAV:   8    -0.160799284252E+04    0.98796E-05   -0.29224E-02 16512   0.222E-01    0.201E-01
DAV:   9    -0.160799478576E+04   -0.19432E-02   -0.13302E-02 15904   0.156E-01    0.150E-01
DAV:  10    -0.160799395082E+04    0.83494E-03   -0.33872E-03 16152   0.102E-01    0.935E-02
DAV:  11    -0.160799357910E+04    0.37172E-03   -0.19768E-03 17008   0.581E-02    0.374E-02
DAV:  12    -0.160799360150E+04   -0.22401E-04   -0.62467E-04 17424   0.342E-02    0.282E-02
DAV:  13    -0.160799361022E+04   -0.87145E-05   -0.14294E-04 15016   0.203E-02    0.160E-02
DAV:  14    -0.160799361131E+04   -0.10883E-05   -0.54342E-05 11520   0.979E-03
   2 F= -.16079936E+04 E0= -.16079892E+04  d E =0.740875E+01
       N       E                     dE             d eps       ncg     rms          rms(c)
DAV:   1    -0.162248177713E+04   -0.14488E+02   -0.24822E+02 12040   0.257E+01    0.873E+00
DAV:   2    -0.161891147114E+04    0.35703E+01   -0.70286E+00 14542   0.424E+00    0.417E+00
DAV:   3    -0.161825064684E+04    0.66082E+00   -0.33784E+00 15560   0.297E+00    0.271E+00
DAV:   4    -0.161784186903E+04    0.40878E+00   -0.15599E+00 16472   0.248E+00    0.125E+00
DAV:   5    -0.161775755830E+04    0.84311E-01   -0.70698E-01 15768   0.141E+00    0.381E-01
DAV:   6    -0.161776124294E+04   -0.36846E-02   -0.11316E-01 14552   0.541E-01    0.283E-01
DAV:   7    -0.161776206496E+04   -0.82202E-03   -0.17885E-02 15760   0.204E-01    0.192E-01
DAV:   8    -0.161776359778E+04   -0.15328E-02   -0.87184E-03 15840   0.123E-01    0.898E-02
DAV:   9    -0.161776426735E+04   -0.66956E-03   -0.21977E-03 14072   0.726E-02    0.578E-02
DAV:  10    -0.161776428269E+04   -0.15345E-04   -0.75038E-04 16072   0.420E-02    0.313E-02
DAV:  11    -0.161776438762E+04   -0.10492E-03   -0.48991E-04 16736   0.312E-02    0.261E-02
DAV:  12    -0.161776444226E+04   -0.54643E-04   -0.94408E-05 13792   0.147E-02    0.159E-02
DAV:  13    -0.161776443343E+04    0.88343E-05   -0.27730E-05  8056   0.844E-03
   3 F= -.16177644E+04 E0= -.16177675E+04  d E =-.977082E+01
       N       E                     dE             d eps       ncg     rms          rms(c)
DAV:   1    -0.161783086381E+04   -0.66422E-01   -0.11821E+01 12040   0.436E+00    0.549E-01
DAV:   2    -0.161784099373E+04   -0.10130E-01   -0.21203E-01 17176   0.767E-01    0.412E-01
DAV:   3    -0.161783324591E+04    0.77478E-02   -0.52549E-02 18160   0.396E-01    0.280E-01
DAV:   4    -0.161783157192E+04    0.16740E-02   -0.10268E-02 18200   0.162E-01    0.181E-01
DAV:   5    -0.161783064785E+04    0.92407E-03   -0.62638E-03 15592   0.121E-01    0.534E-02
DAV:   6    -0.161783058219E+04    0.65661E-04   -0.11251E-03 15952   0.589E-02    0.355E-02
DAV:   7    -0.161783054835E+04    0.33847E-04   -0.25293E-04 15888   0.270E-02    0.220E-02
DAV:   8    -0.161783054173E+04    0.66176E-05   -0.82621E-05 13736   0.126E-02
   4 F= -.16178305E+04 E0= -.16178341E+04  d E =-.661083E-01
       N       E                     dE             d eps       ncg     rms          rms(c)
DAV:   1    -0.161784117047E+04   -0.10622E-01   -0.17449E+00 12046   0.168E+00    0.197E-01
DAV:   2    -0.161784305686E+04   -0.18864E-02   -0.25625E-02 16520   0.294E-01    0.173E-01
DAV:   3    -0.161784116155E+04    0.18953E-02   -0.82226E-03 17522   0.165E-01    0.104E-01
DAV:   4    -0.161784094806E+04    0.21349E-03   -0.15285E-03 16832   0.598E-02    0.546E-02
DAV:   5    -0.161784089912E+04    0.48940E-04   -0.75657E-04 15488   0.448E-02    0.191E-02
DAV:   6    -0.161784088727E+04    0.11854E-04   -0.17314E-04 15696   0.233E-02    0.116E-02
DAV:   7    -0.161784087895E+04    0.83181E-05   -0.26795E-05  8376   0.967E-03
   5 F= -.16178409E+04 E0= -.16178446E+04  d E =-.103372E-01
       N       E                     dE             d eps       ncg     rms          rms(c)
DAV:   1    -0.161784401021E+04   -0.31229E-02   -0.22570E-01 12196   0.686E-01    0.191E-01
DAV:   2    -0.161784253833E+04    0.14719E-02   -0.56729E-03 16480   0.137E-01    0.110E-01
DAV:   3    -0.161784195854E+04    0.57979E-03   -0.31617E-03 17520   0.995E-02    0.766E-02
DAV:   4    -0.161784156317E+04    0.39537E-03   -0.10405E-03 16384   0.567E-02    0.316E-02
DAV:   5    -0.161784146569E+04    0.97477E-04   -0.42056E-04 15096   0.331E-02    0.108E-02
DAV:   6    -0.161784145882E+04    0.68734E-05   -0.69956E-05 13528   0.151E-02
   6 F= -.16178415E+04 E0= -.16178455E+04  d E =-.579866E-03
       N       E                     dE             d eps       ncg     rms          rms(c)
DAV:   1    -0.161784521011E+04   -0.37444E-02   -0.17463E-01 12196   0.570E-01    0.124E-01
DAV:   2    -0.161784480784E+04    0.40227E-03   -0.24650E-03 15648   0.835E-02    0.694E-02
DAV:   3    -0.161784470678E+04    0.10106E-03   -0.10826E-03 17688   0.571E-02    0.521E-02
DAV:   4    -0.161784461616E+04    0.90621E-04   -0.45359E-04 16328   0.363E-02    0.194E-02
DAV:   5    -0.161784463338E+04   -0.17221E-04   -0.15834E-04 14664   0.192E-02    0.796E-03
DAV:   6    -0.161784463400E+04   -0.61533E-06   -0.20335E-05  8176   0.889E-03
   7 F= -.16178446E+04 E0= -.16178486E+04  d E =-.317518E-02
       N       E                     dE             d eps       ncg     rms          rms(c)
DAV:   1    -0.161784552043E+04   -0.88705E-03   -0.10286E-01 12178   0.408E-01    0.507E-02
DAV:   2    -0.161784561695E+04   -0.96520E-04   -0.15087E-03 16768   0.743E-02    0.455E-02
DAV:   3    -0.161784547181E+04    0.14514E-03   -0.54798E-04 17148   0.429E-02    0.263E-02
DAV:   4    -0.161784544554E+04    0.26269E-04   -0.90320E-05 14176   0.151E-02    0.123E-02
DAV:   5    -0.161784543526E+04    0.10282E-04   -0.30052E-05  9088   0.113E-02    0.411E-03
DAV:   6    -0.161784543464E+04    0.61868E-06   -0.85456E-06  6984   0.710E-03
   8 F= -.16178454E+04 E0= -.16178494E+04  d E =-.800644E-03
       N       E                     dE             d eps       ncg     rms          rms(c)
DAV:   1    -0.161784577137E+04   -0.33611E-03   -0.49740E-02 12202   0.289E-01    0.410E-02
DAV:   2    -0.161784579660E+04   -0.25236E-04   -0.57376E-04 16528   0.410E-02    0.287E-02
DAV:   3    -0.161784577199E+04    0.24618E-04   -0.19025E-04 17634   0.243E-02    0.205E-02
DAV:   4    -0.161784577523E+04   -0.32390E-05   -0.52480E-05 12240   0.115E-02    0.703E-03
DAV:   5    -0.161784578171E+04   -0.64868E-05   -0.13357E-05  7016   0.739E-03
   9 F= -.16178458E+04 E0= -.16178497E+04  d E =-.347069E-03
       N       E                     dE             d eps       ncg     rms          rms(c)
DAV:   1    -0.161784602551E+04   -0.25029E-03   -0.58974E-03 12208   0.112E-01    0.323E-02
DAV:   2    -0.161784595628E+04    0.69231E-04   -0.13623E-04 15616   0.193E-02    0.171E-02
DAV:   3    -0.161784593650E+04    0.19784E-04   -0.63887E-05 12616   0.146E-02    0.121E-02
DAV:   4    -0.161784591497E+04    0.21532E-04   -0.19740E-05  8672   0.973E-03    0.505E-03
DAV:   5    -0.161784590533E+04    0.96342E-05   -0.10300E-05  6464   0.553E-03
  10 F= -.16178459E+04 E0= -.16178499E+04  d E =-.123622E-03
       N       E                     dE             d eps       ncg     rms          rms(c)
DAV:   1    -0.161784608771E+04   -0.17274E-03   -0.20648E-02 12208   0.183E-01    0.197E-02
DAV:   2    -0.161784610640E+04   -0.18689E-04   -0.20535E-04 17408   0.229E-02    0.159E-02
DAV:   3    -0.161784609800E+04    0.84031E-05   -0.36328E-05 10032   0.126E-02    0.116E-02
DAV:   4    -0.161784610137E+04   -0.33708E-05   -0.22739E-05  6920   0.728E-03    0.237E-03
DAV:   5    -0.161784610178E+04   -0.40879E-06   -0.53656E-06  6480   0.511E-03
  11 F= -.16178461E+04 E0= -.16178501E+04  d E =-.196442E-03
       N       E                     dE             d eps       ncg     rms          rms(c)
DAV:   1    -0.161784625442E+04   -0.15306E-03   -0.21459E-02 12184   0.187E-01    0.207E-02
DAV:   2    -0.161784625760E+04   -0.31802E-05   -0.21588E-04 17752   0.233E-02    0.164E-02
DAV:   3    -0.161784624573E+04    0.11876E-04   -0.46140E-05 10940   0.137E-02    0.118E-02
DAV:   4    -0.161784623572E+04    0.10011E-04   -0.17129E-05  6984   0.692E-03    0.371E-03
DAV:   5    -0.161784623324E+04    0.24746E-05   -0.55595E-06  6464   0.501E-03
  12 F= -.16178462E+04 E0= -.16178503E+04  d E =-.131467E-03
       N       E                     dE             d eps       ncg     rms          rms(c)
DAV:   1    -0.161784625291E+04   -0.17189E-04   -0.82431E-04 12208   0.434E-02    0.135E-02
DAV:   2    -0.161784625664E+04   -0.37351E-05   -0.13931E-05  6384   0.631E-03    0.658E-03
DAV:   3    -0.161784626225E+04   -0.56103E-05   -0.67382E-06  6368   0.467E-03    0.325E-03
DAV:   4    -0.161784626600E+04   -0.37518E-05   -0.30822E-06  6296   0.364E-03    0.140E-03
DAV:   5    -0.161784626789E+04   -0.18877E-05   -0.13411E-06  6296   0.237E-03
  13 F= -.16178463E+04 E0= -.16178503E+04  d E =-.346480E-04
       N       E                     dE             d eps       ncg     rms          rms(c)
DAV:   1    -0.161784635830E+04   -0.92298E-04   -0.87437E-03 12202   0.119E-01    0.131E-02
DAV:   2    -0.161784635607E+04    0.22356E-05   -0.73594E-05 14272   0.125E-02    0.957E-03
DAV:   3    -0.161784635298E+04    0.30822E-05   -0.12236E-05  7546   0.671E-03    0.726E-03
DAV:   4    -0.161784634754E+04    0.54413E-05   -0.66618E-06  6392   0.450E-03    0.200E-03
DAV:   5    -0.161784634641E+04    0.11268E-05   -0.23675E-06  6352   0.317E-03
  14 F= -.16178463E+04 E0= -.16178504E+04  d E =-.785243E-04
       N       E                     dE             d eps       ncg     rms          rms(c)
DAV:   1    -0.161784641281E+04   -0.65273E-04   -0.92658E-03 12196   0.122E-01    0.122E-02
DAV:   2    -0.161784642050E+04   -0.76826E-05   -0.77075E-05 14488   0.119E-02    0.927E-03
DAV:   3    -0.161784642065E+04   -0.15657E-06   -0.88844E-06  6984   0.553E-03    0.677E-03
DAV:   4    -0.161784642289E+04   -0.22395E-05   -0.65995E-06  6424   0.437E-03    0.124E-03
DAV:   5    -0.161784642280E+04    0.89020E-07   -0.15826E-06  6320   0.261E-03
  15 F= -.16178464E+04 E0= -.16178505E+04  d E =-.763890E-04
       N       E                     dE             d eps       ncg     rms          rms(c)
DAV:   1    -0.161784645449E+04   -0.31598E-04   -0.13590E-03 12208   0.488E-02    0.898E-03
DAV:   2    -0.161784644466E+04    0.98357E-05   -0.12126E-05  6272   0.596E-03    0.497E-03
DAV:   3    -0.161784644111E+04    0.35405E-05   -0.50103E-06  6272   0.459E-03    0.329E-03
DAV:   4    -0.161784643721E+04    0.39047E-05   -0.25553E-06  6272   0.348E-03    0.129E-03
DAV:   5    -0.161784643557E+04    0.16366E-05   -0.14314E-06  6272   0.214E-03
  16 F= -.16178464E+04 E0= -.16178505E+04  d E =-.127695E-04
       N       E                     dE             d eps       ncg     rms          rms(c)
DAV:   1    -0.161784646922E+04   -0.32012E-04   -0.29952E-03 12196   0.701E-02    0.871E-03
DAV:   2    -0.161784647330E+04   -0.40813E-05   -0.18613E-05  8200   0.700E-03    0.566E-03
DAV:   3    -0.161784647641E+04   -0.31058E-05   -0.71670E-06  6482   0.410E-03    0.233E-03
DAV:   4    -0.161784647858E+04   -0.21744E-05   -0.35075E-06  6272   0.324E-03    0.104E-03
DAV:   5    -0.161784647897E+04   -0.38211E-06   -0.18414E-06  6272   0.255E-03
  17 F= -.16178465E+04 E0= -.16178505E+04  d E =-.433921E-04
       N       E                     dE             d eps       ncg     rms          rms(c)
DAV:   1    -0.161784651448E+04   -0.35892E-04   -0.35249E-03 12196   0.754E-02    0.792E-03
DAV:   2    -0.161784651291E+04    0.15692E-05   -0.22372E-05  7648   0.761E-03    0.566E-03
DAV:   3    -0.161784651170E+04    0.12023E-05   -0.74780E-06  6408   0.457E-03    0.346E-03
DAV:   4    -0.161784650990E+04    0.18065E-05   -0.43821E-06  6272   0.382E-03    0.766E-04
DAV:   5    -0.161784651002E+04   -0.12657E-06   -0.22557E-06  6272   0.273E-03
  18 F= -.16178465E+04 E0= -.16178506E+04  d E =-.310584E-04
       N       E                     dE             d eps       ncg     rms          rms(c)
DAV:   1    -0.161784652684E+04   -0.16939E-04   -0.15779E-03 12196   0.509E-02    0.660E-03
DAV:   2    -0.161784653051E+04   -0.36703E-05   -0.11540E-05  6552   0.549E-03    0.420E-03
DAV:   3    -0.161784653305E+04   -0.25439E-05   -0.46938E-06  6266   0.342E-03    0.203E-03
DAV:   4    -0.161784653490E+04   -0.18484E-05   -0.24469E-06  6272   0.272E-03    0.935E-04
DAV:   5    -0.161784653546E+04   -0.56507E-06   -0.13598E-06  6272   0.209E-03
  19 F= -.16178465E+04 E0= -.16178506E+04  d E =-.254400E-04
       N       E                     dE             d eps       ncg     rms          rms(c)
DAV:   1    -0.161784655562E+04   -0.20723E-04   -0.10414E-03 12196   0.413E-02    0.539E-03
DAV:   2    -0.161784655226E+04    0.33626E-05   -0.75771E-06  6344   0.451E-03    0.345E-03
DAV:   3    -0.161784655058E+04    0.16801E-05   -0.29958E-06  6272   0.295E-03    0.207E-03
DAV:   4    -0.161784654893E+04    0.16505E-05   -0.16361E-06  6272   0.238E-03    0.816E-04
DAV:   5    -0.161784654845E+04    0.48123E-06   -0.93358E-07  6272   0.173E-03
  20 F= -.16178465E+04 E0= -.16178506E+04  d E =-.129838E-04
       N       E                     dE             d eps       ncg     rms          rms(c)
DAV:   1    -0.161784656801E+04   -0.19081E-04   -0.21637E-03 12196   0.590E-02    0.594E-03
DAV:   2    -0.161784656970E+04   -0.16942E-05   -0.12722E-05  7720   0.579E-03    0.432E-03
DAV:   3    -0.161784657072E+04   -0.10124E-05   -0.49262E-06  6434   0.342E-03    0.139E-03
DAV:   4    -0.161784657142E+04   -0.70031E-06   -0.24695E-06  6272   0.279E-03    0.628E-04
DAV:   5    -0.161784657141E+04    0.12061E-07   -0.13521E-06  6272   0.205E-03
  21 F= -.16178466E+04 E0= -.16178506E+04  d E =-.229575E-04
       N       E                     dE             d eps       ncg     rms          rms(c)
DAV:   1    -0.161784659513E+04   -0.23712E-04   -0.28535E-03 12196   0.681E-02    0.781E-03
DAV:   2    -0.161784659114E+04    0.39850E-05   -0.18370E-05  7208   0.701E-03    0.522E-03
DAV:   3    -0.161784658885E+04    0.22941E-05   -0.65721E-06  6328   0.429E-03    0.301E-03
DAV:   4    -0.161784658665E+04    0.22045E-05   -0.35711E-06  6272   0.355E-03    0.108E-03
DAV:   5    -0.161784658627E+04    0.38016E-06   -0.19832E-06  6272   0.258E-03
  22 F= -.16178466E+04 E0= -.16178507E+04  d E =-.148602E-04
       N       E                     dE             d eps       ncg     rms          rms(c)
DAV:   1    -0.161784658651E+04    0.13083E-06   -0.71605E-05 11840   0.133E-02    0.467E-03
DAV:   2    -0.161784658967E+04   -0.31587E-05   -0.22622E-06  6272   0.252E-03    0.221E-03
DAV:   3    -0.161784659156E+04   -0.18853E-05   -0.10819E-06  6272   0.204E-03    0.141E-03
DAV:   4    -0.161784659304E+04   -0.14837E-05   -0.52535E-07  6272   0.153E-03    0.557E-04
DAV:   5    -0.161784659398E+04   -0.93507E-06   -0.29120E-07  6272   0.921E-04
  23 F= -.16178466E+04 E0= -.16178507E+04  d E =-.771212E-05
       N       E                     dE             d eps       ncg     rms          rms(c)
DAV:   1    -0.161784660863E+04   -0.15587E-04   -0.15636E-03 12196   0.502E-02    0.489E-03
DAV:   2    -0.161784660864E+04   -0.86884E-08   -0.85117E-06  6296   0.475E-03    0.359E-03
DAV:   3    -0.161784660820E+04    0.43742E-06   -0.30748E-06  6272   0.268E-03    0.129E-03
DAV:   4    -0.161784660809E+04    0.11196E-06   -0.15662E-06  6272   0.219E-03    0.561E-04
DAV:   5    -0.161784660818E+04   -0.88576E-07   -0.82748E-07  6272   0.159E-03
  24 F= -.16178466E+04 E0= -.16178507E+04  d E =-.142001E-04
       N       E                     dE             d eps       ncg     rms          rms(c)
DAV:   1    -0.161784663925E+04   -0.31157E-04   -0.20881E-02 12088   0.183E-01    0.177E-02
DAV:   2    -0.161784665227E+04   -0.13024E-04   -0.17492E-04 17320   0.172E-02    0.136E-02
DAV:   3    -0.161784664963E+04    0.26375E-05   -0.14258E-05  7528   0.631E-03    0.463E-03
DAV:   4    -0.161784665055E+04   -0.91895E-06   -0.57336E-06  6800   0.558E-03    0.215E-03
DAV:   5    -0.161784665013E+04    0.41785E-06   -0.15158E-06  6392   0.320E-03
  25 F= -.16178467E+04 E0= -.16178507E+04  d E =-.419556E-04
       N       E                     dE             d eps       ncg     rms          rms(c)
DAV:   1    -0.161784663406E+04    0.16492E-04   -0.83475E-03 12100   0.117E-01    0.126E-02
DAV:   2    -0.161784662967E+04    0.43917E-05   -0.56924E-05 12608   0.108E-02    0.899E-03
DAV:   3    -0.161784662401E+04    0.56530E-05   -0.94161E-06  6266   0.511E-03    0.432E-03
DAV:   4    -0.161784662059E+04    0.34273E-05   -0.38891E-06  6272   0.420E-03    0.136E-03
DAV:   5    -0.161784662031E+04    0.27213E-06   -0.15201E-06  6272   0.279E-03
  26 F= -.16178466E+04 E0= -.16178507E+04  d E =0.298182E-04
       N       E                     dE             d eps       ncg     rms          rms(c)
DAV:   1    -0.161784663922E+04   -0.18638E-04   -0.55444E-03 12100   0.947E-02    0.917E-03
DAV:   2    -0.161784664145E+04   -0.22267E-05   -0.26864E-05  7576   0.866E-03    0.667E-03
DAV:   3    -0.161784664221E+04   -0.76058E-06   -0.88700E-06  6224   0.460E-03    0.175E-03
DAV:   4    -0.161784664300E+04   -0.78716E-06   -0.37163E-06  6272   0.353E-03    0.102E-03
DAV:   5    -0.161784664293E+04    0.65801E-07   -0.18355E-06  6272   0.250E-03
  27 F= -.16178466E+04 E0= -.16178507E+04  d E =-.226188E-04
       N       E                     dE             d eps       ncg     rms          rms(c)
DAV:   1    -0.161784665346E+04   -0.10466E-04   -0.37340E-03 12136   0.774E-02    0.747E-03
DAV:   2    -0.161784665413E+04   -0.66514E-06   -0.22466E-05  8344   0.762E-03    0.552E-03
DAV:   3    -0.161784665349E+04    0.63715E-06   -0.81788E-06  6344   0.438E-03    0.167E-03
DAV:   4    -0.161784665356E+04   -0.67810E-07   -0.40166E-06  6272   0.353E-03    0.824E-04
DAV:   5    -0.161784665378E+04   -0.21425E-06   -0.21888E-06  6272   0.264E-03
  28 F= -.16178467E+04 E0= -.16178507E+04  d E =-.108414E-04
       N       E                     dE             d eps       ncg     rms          rms(c)
DAV:   1    -0.161784664739E+04    0.61747E-05   -0.31253E-04 12172   0.243E-02    0.531E-03
DAV:   2    -0.161784665064E+04   -0.32548E-05   -0.26811E-06  6254   0.288E-03    0.279E-03
DAV:   3    -0.161784665263E+04   -0.19865E-05   -0.11451E-06  6254   0.211E-03    0.169E-03
DAV:   4    -0.161784665429E+04   -0.16660E-05   -0.52096E-07  6254   0.164E-03    0.696E-04
DAV:   5    -0.161784665529E+04   -0.99715E-06   -0.26023E-07  6254   0.957E-04
  29 F= -.16178467E+04 E0= -.16178507E+04  d E =-.151538E-05
       N       E                     dE             d eps       ncg     rms          rms(c)
DAV:   1    -0.161784666463E+04   -0.10341E-04   -0.67922E-04 12196   0.336E-02    0.443E-03
DAV:   2    -0.161784666147E+04    0.31595E-05   -0.41347E-06  6254   0.339E-03    0.273E-03
DAV:   3    -0.161784665988E+04    0.15982E-05   -0.14592E-06  6254   0.207E-03    0.162E-03
DAV:   4    -0.161784665849E+04    0.13843E-05   -0.72981E-07  6254   0.166E-03    0.676E-04
DAV:   5    -0.161784665796E+04    0.52992E-06   -0.39321E-07  6254   0.115E-03
  30 F= -.16178467E+04 E0= -.16178508E+04  d E =-.267163E-05
       N       E                     dE             d eps       ncg     rms          rms(c)
DAV:   1    -0.161784666044E+04   -0.19435E-05   -0.33282E-04 12092   0.231E-02    0.234E-03
DAV:   2    -0.161784666053E+04   -0.95824E-07   -0.21283E-06  6254   0.237E-03    0.172E-03
DAV:   3    -0.161784666054E+04   -0.98762E-08   -0.81594E-07  6254   0.144E-03    0.777E-04
DAV:   4    -0.161784666056E+04   -0.21933E-07   -0.46595E-07  6254   0.121E-03    0.296E-04
DAV:   5    -0.161784666058E+04   -0.19812E-07   -0.24670E-07  6254   0.859E-04
  31 F= -.16178467E+04 E0= -.16178508E+04  d E =-.262085E-05
       N       E                     dE             d eps       ncg     rms          rms(c)
DAV:   1    -0.161784666733E+04   -0.67679E-05   -0.98930E-03 12088   0.126E-01    0.121E-02
DAV:   2    -0.161784667148E+04   -0.41451E-05   -0.77153E-05 14440   0.118E-02    0.937E-03
DAV:   3    -0.161784666918E+04    0.22940E-05   -0.10366E-05  6712   0.533E-03    0.354E-03
DAV:   4    -0.161784666883E+04    0.35203E-06   -0.39582E-06  6336   0.429E-03    0.175E-03
DAV:   5    -0.161784666880E+04    0.34940E-07   -0.12609E-06  6266   0.260E-03
  32 F= -.16178467E+04 E0= -.16178508E+04  d E =-.821212E-05
