       N       E                     dE             d eps       ncg     rms          rms(c)
DAV:   1     0.258235784494E+04    0.25824E+04   -0.30942E+05 12272   0.144E+03
DAV:   2    -0.119604408728E+04   -0.37784E+04   -0.36165E+04 14108   0.333E+02
DAV:   3    -0.168663366976E+04   -0.49059E+03   -0.46406E+03 18720   0.827E+01
DAV:   4    -0.171191444286E+04   -0.25281E+02   -0.24420E+02 17232   0.185E+01
DAV:   5    -0.171296749470E+04   -0.10531E+01   -0.10368E+01 19216   0.388E+00    0.448E+01
DAV:   6    -0.165778531155E+04    0.55182E+02   -0.11497E+02 18184   0.141E+01    0.235E+01
DAV:   7    -0.164325921705E+04    0.14526E+02   -0.76798E+01 17672   0.139E+01    0.139E+01
DAV:   8    -0.163372333264E+04    0.95359E+01   -0.39896E+01 17448   0.118E+01    0.492E+00
DAV:   9    -0.163290772208E+04    0.81561E+00   -0.13427E+01 17824   0.567E+00    0.210E+00
DAV:  10    -0.163291227772E+04   -0.45556E-02   -0.17765E+00 15672   0.198E+00    0.147E+00
DAV:  11    -0.163287313998E+04    0.39138E-01   -0.43584E-01 16824   0.849E-01    0.702E-01
DAV:  12    -0.163286285780E+04    0.10282E-01   -0.66116E-02 17136   0.396E-01    0.370E-01
DAV:  13    -0.163285799103E+04    0.48668E-02   -0.18501E-02 17424   0.247E-01    0.168E-01
DAV:  14    -0.163285729443E+04    0.69659E-03   -0.83091E-03 16256   0.134E-01    0.592E-02
DAV:  15    -0.163285734643E+04   -0.51996E-04   -0.15693E-03 14616   0.609E-02    0.290E-02
DAV:  16    -0.163285734487E+04    0.15546E-05   -0.30063E-04 16376   0.262E-02    0.173E-02
DAV:  17    -0.163285733291E+04    0.11964E-04   -0.59700E-05 12704   0.139E-02    0.813E-03
DAV:  18    -0.163285732661E+04    0.63050E-05   -0.17954E-05  8328   0.752E-03
   1 F= -.16328573E+04 E0= -.16328433E+04  d E =-.163286E+04
       N       E                     dE             d eps       ncg     rms          rms(c)
DAV:   1    -0.163385777730E+04   -0.10004E+01   -0.34892E+02 12264   0.255E+01    0.695E+00
DAV:   2    -0.163180736037E+04    0.20504E+01   -0.91539E+00 16768   0.410E+00    0.332E+00
DAV:   3    -0.163139694711E+04    0.41041E+00   -0.26640E+00 17144   0.253E+00    0.216E+00
DAV:   4    -0.163117265715E+04    0.22429E+00   -0.94435E-01 17328   0.189E+00    0.109E+00
DAV:   5    -0.163111900094E+04    0.53656E-01   -0.45267E-01 15512   0.110E+00    0.373E-01
DAV:   6    -0.163112231726E+04   -0.33163E-02   -0.65711E-02 15624   0.377E-01    0.268E-01
DAV:   7    -0.163112281009E+04   -0.49284E-03   -0.11577E-02 15808   0.154E-01    0.156E-01
DAV:   8    -0.163112364605E+04   -0.83596E-03   -0.51430E-03 16008   0.111E-01    0.869E-02
DAV:   9    -0.163112345017E+04    0.19588E-03   -0.13393E-03 15544   0.645E-02    0.427E-02
DAV:  10    -0.163112338746E+04    0.62703E-04   -0.77262E-04 17776   0.342E-02    0.198E-02
DAV:  11    -0.163112339897E+04   -0.11509E-04   -0.91574E-05 14416   0.153E-02    0.132E-02
DAV:  12    -0.163112340236E+04   -0.33858E-05   -0.19340E-05  8328   0.805E-03
   2 F= -.16311234E+04 E0= -.16311193E+04  d E =0.173392E+01
       N       E                     dE             d eps       ncg     rms          rms(c)
DAV:   1    -0.163565906764E+04   -0.45357E+01   -0.86747E+01 12264   0.149E+01    0.515E+00
DAV:   2    -0.163438347957E+04    0.12756E+01   -0.20212E+00 12904   0.212E+00    0.237E+00
DAV:   3    -0.163410469936E+04    0.27878E+00   -0.77378E-01 14472   0.145E+00    0.983E-01
DAV:   4    -0.163405001430E+04    0.54685E-01   -0.24919E-01 15040   0.108E+00    0.397E-01
DAV:   5    -0.163404330663E+04    0.67077E-02   -0.96308E-02 15080   0.553E-01    0.152E-01
DAV:   6    -0.163404531083E+04   -0.20042E-02   -0.17349E-02 15872   0.190E-01    0.110E-01
DAV:   7    -0.163404610639E+04   -0.79556E-03   -0.23992E-03 15624   0.681E-02    0.595E-02
DAV:   8    -0.163404654934E+04   -0.44295E-03   -0.65265E-04 14896   0.418E-02    0.327E-02
DAV:   9    -0.163404670659E+04   -0.15725E-03   -0.33008E-04 15152   0.262E-02    0.159E-02
DAV:  10    -0.163404677143E+04   -0.64846E-04   -0.14179E-04 14824   0.171E-02    0.102E-02
DAV:  11    -0.163404677561E+04   -0.41724E-05   -0.16420E-05  7768   0.720E-03
   3 F= -.16340468E+04 E0= -.16340369E+04  d E =-.292337E+01
       N       E                     dE             d eps       ncg     rms          rms(c)
DAV:   1    -0.163412373663E+04   -0.76965E-01   -0.90377E+00 12264   0.388E+00    0.648E-01
DAV:   2    -0.163412023751E+04    0.34991E-02   -0.15046E-01 17384   0.582E-01    0.380E-01
DAV:   3    -0.163411668794E+04    0.35496E-02   -0.31850E-02 18368   0.308E-01    0.276E-01
DAV:   4    -0.163411354645E+04    0.31415E-02   -0.11739E-02 17312   0.195E-01    0.113E-01
DAV:   5    -0.163411311052E+04    0.43593E-03   -0.43731E-03 15608   0.104E-01    0.444E-02
DAV:   6    -0.163411313691E+04   -0.26391E-04   -0.66526E-04 16784   0.375E-02    0.308E-02
DAV:   7    -0.163411313588E+04    0.10333E-05   -0.12242E-04 14928   0.182E-02    0.191E-02
DAV:   8    -0.163411314064E+04   -0.47654E-05   -0.69591E-05 14344   0.135E-02
   4 F= -.16341131E+04 E0= -.16341039E+04  d E =-.663650E-01
       N       E                     dE             d eps       ncg     rms          rms(c)
DAV:   1    -0.163411784006E+04   -0.47042E-02   -0.85753E-01 12366   0.116E+00    0.150E-01
DAV:   2    -0.163411832598E+04   -0.48592E-03   -0.14275E-02 17344   0.193E-01    0.966E-02
DAV:   3    -0.163411799741E+04    0.32857E-03   -0.29162E-03 18514   0.964E-02    0.699E-02
DAV:   4    -0.163411788490E+04    0.11251E-03   -0.53776E-04 17672   0.394E-02    0.400E-02
DAV:   5    -0.163411785460E+04    0.30303E-04   -0.31298E-04 14416   0.252E-02    0.110E-02
DAV:   6    -0.163411785161E+04    0.29821E-05   -0.26729E-05  8880   0.939E-03
   5 F= -.16341179E+04 E0= -.16341088E+04  d E =-.471097E-02
       N       E                     dE             d eps       ncg     rms          rms(c)
DAV:   1    -0.163411890794E+04   -0.10533E-02   -0.12539E-01 12426   0.457E-01    0.772E-02
DAV:   2    -0.163411885088E+04    0.57059E-04   -0.17584E-03 15968   0.750E-02    0.441E-02
DAV:   3    -0.163411880733E+04    0.43550E-04   -0.50050E-04 18114   0.408E-02    0.322E-02
DAV:   4    -0.163411879093E+04    0.16402E-04   -0.14922E-04 16352   0.217E-02    0.137E-02
DAV:   5    -0.163411880310E+04   -0.12170E-04   -0.56008E-05 12896   0.110E-02    0.504E-03
DAV:   6    -0.163411880308E+04    0.14295E-07   -0.51278E-06  7152   0.432E-03
   6 F= -.16341188E+04 E0= -.16341096E+04  d E =-.951469E-03
       N       E                     dE             d eps       ncg     rms          rms(c)
DAV:   1    -0.163411940742E+04   -0.60432E-03   -0.45623E-02 12434   0.280E-01    0.539E-02
DAV:   2    -0.163411929671E+04    0.11070E-03   -0.68718E-04 16096   0.513E-02    0.317E-02
DAV:   3    -0.163411923850E+04    0.58206E-04   -0.24228E-04 16754   0.302E-02    0.220E-02
DAV:   4    -0.163411919329E+04    0.45210E-04   -0.70462E-05 14280   0.152E-02    0.720E-03
DAV:   5    -0.163411918306E+04    0.10233E-04   -0.17265E-05  7096   0.701E-03    0.290E-03
DAV:   6    -0.163411918319E+04   -0.12835E-06   -0.40065E-06  6912   0.470E-03
   7 F= -.16341192E+04 E0= -.16341101E+04  d E =-.380107E-03
       N       E                     dE             d eps       ncg     rms          rms(c)
DAV:   1    -0.163411937315E+04   -0.19008E-03   -0.17872E-02 12426   0.173E-01    0.278E-02
DAV:   2    -0.163411938238E+04   -0.92364E-05   -0.19966E-04 16264   0.257E-02    0.173E-02
DAV:   3    -0.163411937847E+04    0.39137E-05   -0.51276E-05 12050   0.141E-02    0.124E-02
DAV:   4    -0.163411938739E+04   -0.89222E-05   -0.21551E-05  7504   0.818E-03    0.271E-03
DAV:   5    -0.163411938989E+04   -0.25022E-05   -0.56710E-06  6840   0.462E-03
   8 F= -.16341194E+04 E0= -.16341103E+04  d E =-.206703E-03
       N       E                     dE             d eps       ncg     rms          rms(c)
DAV:   1    -0.163411949727E+04   -0.10988E-03   -0.97754E-03 12448   0.126E-01    0.175E-02
DAV:   2    -0.163411948760E+04    0.96687E-05   -0.10894E-04 15368   0.201E-02    0.119E-02
DAV:   3    -0.163411947864E+04    0.89594E-05   -0.25169E-05  9664   0.107E-02    0.843E-03
DAV:   4    -0.163411946860E+04    0.10039E-04   -0.13167E-05  6912   0.584E-03    0.196E-03
DAV:   5    -0.163411946772E+04    0.88099E-06   -0.35719E-06  6696   0.382E-03
   9 F= -.16341195E+04 E0= -.16341104E+04  d E =-.778262E-04
       N       E                     dE             d eps       ncg     rms          rms(c)
DAV:   1    -0.163411951005E+04   -0.41452E-04   -0.48485E-03 12448   0.887E-02    0.124E-02
DAV:   2    -0.163411951613E+04   -0.60829E-05   -0.38839E-05 10336   0.121E-02    0.801E-03
DAV:   3    -0.163411951721E+04   -0.10791E-05   -0.10748E-05  7624   0.775E-03    0.566E-03
DAV:   4    -0.163411952244E+04   -0.52288E-05   -0.71301E-06  6696   0.468E-03    0.122E-03
DAV:   5    -0.163411952311E+04   -0.66840E-06   -0.25581E-06  6696   0.320E-03
  10 F= -.16341195E+04 E0= -.16341104E+04  d E =-.553920E-04
       N       E                     dE             d eps       ncg     rms          rms(c)
DAV:   1    -0.163411956010E+04   -0.37661E-04   -0.21175E-03 12448   0.592E-02    0.973E-03
DAV:   2    -0.163411955111E+04    0.89926E-05   -0.18009E-05  7688   0.823E-03    0.576E-03
DAV:   3    -0.163411954801E+04    0.30996E-05   -0.63478E-06  6824   0.604E-03    0.391E-03
DAV:   4    -0.163411954333E+04    0.46828E-05   -0.40564E-06  6696   0.397E-03    0.115E-03
DAV:   5    -0.163411954267E+04    0.66257E-06   -0.18809E-06  6696   0.268E-03
  11 F= -.16341195E+04 E0= -.16341104E+04  d E =-.195551E-04
       N       E                     dE             d eps       ncg     rms          rms(c)
DAV:   1    -0.163411956278E+04   -0.19452E-04   -0.21032E-03 12448   0.580E-02    0.721E-03
DAV:   2    -0.163411956624E+04   -0.34590E-05   -0.14220E-05  7144   0.680E-03    0.480E-03
DAV:   3    -0.163411956760E+04   -0.13624E-05   -0.47868E-06  6696   0.454E-03    0.320E-03
DAV:   4    -0.163411957026E+04   -0.26546E-05   -0.31997E-06  6576   0.338E-03    0.666E-04
DAV:   5    -0.163411957041E+04   -0.15153E-06   -0.15347E-06  6568   0.238E-03
  12 F= -.16341196E+04 E0= -.16341105E+04  d E =-.277425E-04
       N       E                     dE             d eps       ncg     rms          rms(c)
DAV:   1    -0.163411959088E+04   -0.20623E-04   -0.17177E-03 12432   0.523E-02    0.629E-03
DAV:   2    -0.163411958795E+04    0.29268E-05   -0.11732E-05  7344   0.603E-03    0.422E-03
DAV:   3    -0.163411958674E+04    0.12093E-05   -0.40673E-06  6552   0.401E-03    0.287E-03
DAV:   4    -0.163411958444E+04    0.23079E-05   -0.26034E-06  6432   0.302E-03    0.635E-04
DAV:   5    -0.163411958450E+04   -0.59325E-07   -0.13184E-06  6424   0.216E-03
  13 F= -.16341196E+04 E0= -.16341105E+04  d E =-.140872E-04
       N       E                     dE             d eps       ncg     rms          rms(c)
DAV:   1    -0.163411959251E+04   -0.80767E-05   -0.76525E-04 12432   0.352E-02    0.492E-03
DAV:   2    -0.163411959533E+04   -0.28203E-05   -0.57404E-06  6408   0.394E-03    0.307E-03
DAV:   3    -0.163411959760E+04   -0.22620E-05   -0.24311E-06  6408   0.267E-03    0.125E-03
DAV:   4    -0.163411959869E+04   -0.10932E-05   -0.12136E-06  6408   0.220E-03    0.533E-04
DAV:   5    -0.163411959892E+04   -0.23422E-06   -0.68558E-07  6408   0.150E-03
  14 F= -.16341196E+04 E0= -.16341105E+04  d E =-.144271E-04
       N       E                     dE             d eps       ncg     rms          rms(c)
DAV:   1    -0.163411961139E+04   -0.12703E-04   -0.85021E-04 12432   0.368E-02    0.441E-03
DAV:   2    -0.163411960930E+04    0.20881E-05   -0.55997E-06  6504   0.398E-03    0.295E-03
DAV:   3    -0.163411960818E+04    0.11221E-05   -0.20326E-06  6472   0.257E-03    0.173E-03
DAV:   4    -0.163411960686E+04    0.13229E-05   -0.11920E-06  6408   0.211E-03    0.421E-04
DAV:   5    -0.163411960690E+04   -0.43357E-07   -0.63711E-07  6408   0.145E-03
  15 F= -.16341196E+04 E0= -.16341105E+04  d E =-.797866E-05
       N       E                     dE             d eps       ncg     rms          rms(c)
DAV:   1    -0.163411961475E+04   -0.78964E-05   -0.96163E-04 12432   0.390E-02    0.433E-03
DAV:   2    -0.163411961650E+04   -0.17502E-05   -0.59486E-06  6600   0.401E-03    0.302E-03
DAV:   3    -0.163411961793E+04   -0.14252E-05   -0.23509E-06  6552   0.245E-03    0.971E-04
DAV:   4    -0.163411961857E+04   -0.64427E-06   -0.11420E-06  6408   0.200E-03    0.361E-04
DAV:   5    -0.163411961851E+04    0.63024E-07   -0.63886E-07  6408   0.142E-03
  16 F= -.16341196E+04 E0= -.16341105E+04  d E =-.116097E-04
       N       E                     dE             d eps       ncg     rms          rms(c)
DAV:   1    -0.163411962640E+04   -0.78230E-05   -0.40765E-04 12376   0.257E-02    0.366E-03
DAV:   2    -0.163411962384E+04    0.25546E-05   -0.31214E-06  6384   0.291E-03    0.224E-03
DAV:   3    -0.163411962225E+04    0.15894E-05   -0.12764E-06  6384   0.194E-03    0.106E-03
DAV:   4    -0.163411962134E+04    0.91453E-06   -0.65763E-07  6384   0.160E-03    0.429E-04
DAV:   5    -0.163411962117E+04    0.16801E-06   -0.37194E-07  6384   0.109E-03
  17 F= -.16341196E+04 E0= -.16341105E+04  d E =-.265941E-05
       N       E                     dE             d eps       ncg     rms          rms(c)
DAV:   1    -0.163411962488E+04   -0.35386E-05   -0.37418E-04 12352   0.244E-02    0.304E-03
DAV:   2    -0.163411962645E+04   -0.15718E-05   -0.25054E-06  6384   0.258E-03    0.200E-03
DAV:   3    -0.163411962792E+04   -0.14740E-05   -0.10651E-06  6384   0.154E-03    0.507E-04
DAV:   4    -0.163411962830E+04   -0.37593E-06   -0.47180E-07  6384   0.112E-03    0.271E-04
DAV:   5    -0.163411962833E+04   -0.28173E-07   -0.26070E-07  6384   0.868E-04
  18 F= -.16341196E+04 E0= -.16341105E+04  d E =-.715655E-05
       N       E                     dE             d eps       ncg     rms          rms(c)
DAV:   1    -0.163411963465E+04   -0.63479E-05   -0.58875E-04 12432   0.305E-02    0.326E-03
DAV:   2    -0.163411963381E+04    0.83718E-06   -0.35138E-06  6384   0.309E-03    0.231E-03
DAV:   3    -0.163411963296E+04    0.85329E-06   -0.13364E-06  6384   0.181E-03    0.788E-04
DAV:   4    -0.163411963260E+04    0.35583E-06   -0.66159E-07  6384   0.147E-03    0.271E-04
DAV:   5    -0.163411963272E+04   -0.11774E-06   -0.36457E-07  6384   0.106E-03
  19 F= -.16341196E+04 E0= -.16341105E+04  d E =-.439113E-05
       N       E                     dE             d eps       ncg     rms          rms(c)
DAV:   1    -0.163411963433E+04   -0.17344E-05   -0.29534E-04 12320   0.218E-02    0.299E-03
DAV:   2    -0.163411963614E+04   -0.18049E-05   -0.21438E-06  6408   0.238E-03    0.187E-03
DAV:   3    -0.163411963768E+04   -0.15426E-05   -0.91898E-07  6408   0.144E-03    0.594E-04
DAV:   4    -0.163411963822E+04   -0.53629E-06   -0.41799E-07  6384   0.108E-03    0.317E-04
DAV:   5    -0.163411963830E+04   -0.84537E-07   -0.22712E-07  6384   0.822E-04
  20 F= -.16341196E+04 E0= -.16341105E+04  d E =-.558500E-05
       N       E                     dE             d eps       ncg     rms          rms(c)
DAV:   1    -0.163411964228E+04   -0.40661E-05   -0.13239E-04 12184   0.147E-02    0.224E-03
DAV:   2    -0.163411964065E+04    0.16394E-05   -0.10982E-06  6408   0.171E-03    0.133E-03
DAV:   3    -0.163411963950E+04    0.11491E-05   -0.45916E-07  6408   0.108E-03    0.534E-04
DAV:   4    -0.163411963902E+04    0.48095E-06   -0.21790E-07  6384   0.856E-04    0.254E-04
DAV:   5    -0.163411963890E+04    0.11446E-06   -0.12022E-07  6384   0.611E-04
  21 F= -.16341196E+04 E0= -.16341105E+04  d E =-.597622E-06
       N       E                     dE             d eps       ncg     rms          rms(c)
DAV:   1    -0.163411964151E+04   -0.24965E-05   -0.32789E-04 12328   0.227E-02    0.236E-03
DAV:   2    -0.163411964205E+04   -0.53489E-06   -0.19240E-06  6384   0.229E-03    0.170E-03
DAV:   3    -0.163411964261E+04   -0.56580E-06   -0.80873E-07  6384   0.131E-03    0.247E-04
DAV:   4    -0.163411964265E+04   -0.36275E-07   -0.32827E-07  6384   0.897E-04    0.165E-04
DAV:   5    -0.163411964264E+04    0.84233E-08   -0.18300E-07  6384   0.690E-04
  22 F= -.16341196E+04 E0= -.16341105E+04  d E =-.373951E-05
       N       E                     dE             d eps       ncg     rms          rms(c)
DAV:   1    -0.163411964731E+04   -0.46598E-05   -0.53377E-04 12420   0.291E-02    0.340E-03
DAV:   2    -0.163411964565E+04    0.16609E-05   -0.32625E-06  6456   0.297E-03    0.227E-03
DAV:   3    -0.163411964425E+04    0.13971E-05   -0.12314E-06  6450   0.171E-03    0.810E-04
DAV:   4    -0.163411964373E+04    0.52169E-06   -0.58025E-07  6384   0.137E-03    0.342E-04
DAV:   5    -0.163411964375E+04   -0.18821E-07   -0.31444E-07  6384   0.101E-03
  23 F= -.16341196E+04 E0= -.16341105E+04  d E =-.110741E-05
       N       E                     dE             d eps       ncg     rms          rms(c)
DAV:   1    -0.163411964219E+04    0.15365E-05   -0.16927E-05  6624   0.648E-03    0.184E-03
DAV:   2    -0.163411964391E+04   -0.17156E-05   -0.92500E-07  6488   0.205E-03    0.929E-04
DAV:   3    -0.163411964529E+04   -0.13800E-05   -0.14342E-07  6384   0.661E-04    0.416E-04
DAV:   4    -0.163411964576E+04   -0.47445E-06   -0.61934E-08  6384   0.614E-04    0.176E-04
DAV:   5    -0.163411964606E+04   -0.30099E-06   -0.35419E-08  6384   0.283E-04
  24 F= -.16341196E+04 E0= -.16341105E+04  d E =-.231576E-05
       N       E                     dE             d eps       ncg     rms          rms(c)
DAV:   1    -0.163411964821E+04   -0.24440E-05   -0.23171E-04 12196   0.191E-02    0.192E-03
DAV:   2    -0.163411964804E+04    0.17111E-06   -0.13173E-06  6366   0.187E-03    0.138E-03
DAV:   3    -0.163411964772E+04    0.31110E-06   -0.49529E-07  6366   0.101E-03    0.219E-04
DAV:   4    -0.163411964771E+04    0.13845E-07   -0.19983E-07  6366   0.709E-04    0.160E-04
DAV:   5    -0.163411964774E+04   -0.30486E-07   -0.10928E-07  6366   0.535E-04
  25 F= -.16341196E+04 E0= -.16341105E+04  d E =-.167745E-05
       N       E                     dE             d eps       ncg     rms          rms(c)
DAV:   1    -0.163411965024E+04   -0.25252E-05   -0.15149E-03 12420   0.489E-02    0.492E-03
DAV:   2    -0.163411965137E+04   -0.11317E-05   -0.81297E-06  6430   0.471E-03    0.357E-03
DAV:   3    -0.163411965226E+04   -0.88832E-06   -0.32950E-06  6414   0.261E-03    0.501E-04
DAV:   4    -0.163411965238E+04   -0.12053E-06   -0.12658E-06  6366   0.173E-03    0.336E-04
DAV:   5    -0.163411965239E+04   -0.14148E-07   -0.68357E-07  6366   0.133E-03
  26 F= -.16341197E+04 E0= -.16341105E+04  d E =-.464938E-05
