       N       E                     dE             d eps       ncg     rms          rms(c)
DAV:   1     0.219467943277E+04    0.21947E+04   -0.29004E+05 11620   0.143E+03
DAV:   2    -0.119709364262E+04   -0.33918E+04   -0.32558E+04 13486   0.295E+02
DAV:   3    -0.162570125384E+04   -0.42861E+03   -0.39569E+03 17968   0.817E+01
DAV:   4    -0.165025943647E+04   -0.24558E+02   -0.22917E+02 16352   0.172E+01
DAV:   5    -0.165130077715E+04   -0.10413E+01   -0.10226E+01 17864   0.417E+00    0.413E+01
DAV:   6    -0.161264652983E+04    0.38654E+02   -0.15725E+02 18280   0.182E+01    0.244E+01
DAV:   7    -0.159772052447E+04    0.14926E+02   -0.10993E+02 19128   0.175E+01    0.187E+01
DAV:   8    -0.158604245769E+04    0.11678E+02   -0.72386E+01 16776   0.118E+01    0.102E+01
DAV:   9    -0.158082332841E+04    0.52191E+01   -0.27018E+01 16824   0.854E+00    0.360E+00
DAV:  10    -0.158051773248E+04    0.30560E+00   -0.57711E+00 16712   0.375E+00    0.191E+00
DAV:  11    -0.158049968333E+04    0.18049E-01   -0.11951E+00 15832   0.158E+00    0.135E+00
DAV:  12    -0.158046659388E+04    0.33089E-01   -0.27329E-01 13408   0.752E-01    0.672E-01
DAV:  13    -0.158045790671E+04    0.86872E-02   -0.67830E-02 15640   0.468E-01    0.382E-01
DAV:  14    -0.158045242921E+04    0.54775E-02   -0.27729E-02 16616   0.294E-01    0.203E-01
DAV:  15    -0.158045107199E+04    0.13572E-02   -0.94321E-03 14832   0.137E-01    0.803E-02
DAV:  16    -0.158045107402E+04   -0.20367E-05   -0.21961E-03 16296   0.702E-02    0.507E-02
DAV:  17    -0.158045106775E+04    0.62735E-05   -0.63640E-04 16648   0.427E-02    0.350E-02
DAV:  18    -0.158045102760E+04    0.40146E-04   -0.24870E-04 16296   0.268E-02    0.163E-02
DAV:  19    -0.158045102201E+04    0.55964E-05   -0.70202E-05 12760   0.129E-02
   1 F= -.15804510E+04 E0= -.15804542E+04  d E =-.158045E+04
       N       E                     dE             d eps       ncg     rms          rms(c)
DAV:   1    -0.158440896429E+04   -0.39579E+01   -0.14917E+03 11620   0.586E+01    0.210E+01
DAV:   2    -0.156920281935E+04    0.15206E+02   -0.91747E+01 18048   0.137E+01    0.132E+01
DAV:   3    -0.156330158715E+04    0.59012E+01   -0.56763E+01 19288   0.114E+01    0.969E+00
DAV:   4    -0.155899731897E+04    0.43043E+01   -0.22442E+01 20136   0.674E+00    0.594E+00
DAV:   5    -0.155755432549E+04    0.14430E+01   -0.11672E+01 17192   0.452E+00    0.250E+00
DAV:   6    -0.155734853642E+04    0.20579E+00   -0.26154E+00 17296   0.242E+00    0.152E+00
DAV:   7    -0.155729508011E+04    0.53456E-01   -0.53927E-01 16096   0.112E+00    0.982E-01
DAV:   8    -0.155728607373E+04    0.90064E-02   -0.15916E-01 17440   0.470E-01    0.540E-01
DAV:   9    -0.155729056820E+04   -0.44945E-02   -0.75957E-02 18120   0.306E-01    0.312E-01
DAV:  10    -0.155729245100E+04   -0.18828E-02   -0.26916E-02 17016   0.242E-01    0.272E-01
DAV:  11    -0.155728968512E+04    0.27659E-02   -0.11139E-02 17248   0.151E-01    0.118E-01
DAV:  12    -0.155728959007E+04    0.95054E-04   -0.50315E-03 18208   0.799E-02    0.561E-02
DAV:  13    -0.155728977609E+04   -0.18603E-03   -0.83078E-04 16920   0.398E-02    0.391E-02
DAV:  14    -0.155728982187E+04   -0.45776E-04   -0.38950E-04 16992   0.293E-02    0.232E-02
DAV:  15    -0.155728982154E+04    0.33043E-06   -0.14007E-04 14664   0.167E-02    0.121E-02
DAV:  16    -0.155728982320E+04   -0.16583E-05   -0.34631E-05  7840   0.905E-03
   2 F= -.15572898E+04 E0= -.15572933E+04  d E =0.231612E+02
       N       E                     dE             d eps       ncg     rms          rms(c)
DAV:   1    -0.159901956062E+04   -0.41730E+02   -0.71328E+02 11620   0.446E+01    0.149E+01
DAV:   2    -0.158981614056E+04    0.92034E+01   -0.26818E+01 16920   0.849E+00    0.742E+00
DAV:   3    -0.158849883080E+04    0.13173E+01   -0.16606E+01 18160   0.648E+00    0.628E+00
DAV:   4    -0.158646405561E+04    0.20348E+01   -0.76019E+00 17832   0.446E+00    0.311E+00
DAV:   5    -0.158604749538E+04    0.41656E+00   -0.35570E+00 16480   0.287E+00    0.125E+00
DAV:   6    -0.158600047805E+04    0.47017E-01   -0.76282E-01 15920   0.147E+00    0.764E-01
DAV:   7    -0.158599511970E+04    0.53583E-02   -0.14688E-01 15344   0.590E-01    0.523E-01
DAV:   8    -0.158599898703E+04   -0.38673E-02   -0.42713E-02 15792   0.265E-01    0.265E-01
DAV:   9    -0.158600683217E+04   -0.78451E-02   -0.24614E-02 16360   0.201E-01    0.198E-01
DAV:  10    -0.158600669294E+04    0.13923E-03   -0.63253E-03 15864   0.142E-01    0.136E-01
DAV:  11    -0.158600613954E+04    0.55339E-03   -0.40038E-03 16776   0.861E-02    0.479E-02
DAV:  12    -0.158600639819E+04   -0.25865E-03   -0.99947E-04 16224   0.431E-02    0.409E-02
DAV:  13    -0.158600655818E+04   -0.15999E-03   -0.29784E-04 15040   0.282E-02    0.270E-02
DAV:  14    -0.158600657389E+04   -0.15708E-04   -0.12488E-04 14048   0.167E-02    0.991E-03
DAV:  15    -0.158600657138E+04    0.25158E-05   -0.33333E-05  7400   0.821E-03
   3 F= -.15860066E+04 E0= -.15859957E+04  d E =-.287167E+02
       N       E                     dE             d eps       ncg     rms          rms(c)
DAV:   1    -0.158616723823E+04   -0.16066E+00   -0.17784E+01 11620   0.555E+00    0.733E-01
DAV:   2    -0.158619104651E+04   -0.23808E-01   -0.32299E-01 17184   0.880E-01    0.695E-01
DAV:   3    -0.158616446405E+04    0.26582E-01   -0.11194E-01 17872   0.567E-01    0.374E-01
DAV:   4    -0.158616116002E+04    0.33040E-02   -0.22086E-02 16760   0.218E-01    0.233E-01
DAV:   5    -0.158615998403E+04    0.11760E-02   -0.11061E-02 16632   0.180E-01    0.125E-01
DAV:   6    -0.158615939983E+04    0.58419E-03   -0.46647E-03 16128   0.115E-01    0.593E-02
DAV:   7    -0.158615934171E+04    0.58127E-04   -0.11687E-03 15368   0.514E-02    0.379E-02
DAV:   8    -0.158615931608E+04    0.25627E-04   -0.29252E-04 16032   0.260E-02    0.241E-02
DAV:   9    -0.158615930780E+04    0.82843E-05   -0.98927E-05 14392   0.162E-02
   4 F= -.15861593E+04 E0= -.15861490E+04  d E =-.152736E+00
       N       E                     dE             d eps       ncg     rms          rms(c)
DAV:   1    -0.158619683026E+04   -0.37514E-01   -0.41952E+00 11620   0.268E+00    0.405E-01
DAV:   2    -0.158621070315E+04   -0.13873E-01   -0.11526E-01 17832   0.600E-01    0.499E-01
DAV:   3    -0.158619246156E+04    0.18242E-01   -0.56900E-02 17800   0.407E-01    0.184E-01
DAV:   4    -0.158619165584E+04    0.80572E-03   -0.65122E-03 16608   0.119E-01    0.127E-01
DAV:   5    -0.158619121904E+04    0.43680E-03   -0.29217E-03 16752   0.933E-02    0.770E-02
DAV:   6    -0.158619098070E+04    0.23834E-03   -0.15818E-03 15816   0.648E-02    0.385E-02
DAV:   7    -0.158619093300E+04    0.47704E-04   -0.41034E-04 14768   0.310E-02    0.217E-02
DAV:   8    -0.158619093486E+04   -0.18654E-05   -0.91078E-05 13608   0.145E-02
   5 F= -.15861909E+04 E0= -.15861803E+04  d E =-.316271E-01
       N       E                     dE             d eps       ncg     rms          rms(c)
DAV:   1    -0.158620252578E+04   -0.11593E-01   -0.75629E-01 11760   0.122E+00    0.259E-01
DAV:   2    -0.158620086183E+04    0.16639E-02   -0.12600E-02 16096   0.174E-01    0.159E-01
DAV:   3    -0.158620016839E+04    0.69345E-03   -0.60938E-03 17760   0.132E-01    0.119E-01
DAV:   4    -0.158619955521E+04    0.61318E-03   -0.22165E-03 15816   0.745E-02    0.530E-02
DAV:   5    -0.158619954766E+04    0.75499E-05   -0.93988E-04 15704   0.510E-02    0.295E-02
DAV:   6    -0.158619952018E+04    0.27473E-04   -0.27279E-04 15608   0.296E-02    0.154E-02
DAV:   7    -0.158619951856E+04    0.16246E-05   -0.52223E-05 10656   0.116E-02
   6 F= -.15861995E+04 E0= -.15861893E+04  d E =-.858370E-02
       N       E                     dE             d eps       ncg     rms          rms(c)
DAV:   1    -0.158621025012E+04   -0.10730E-01   -0.64147E-01 11662   0.107E+00    0.203E-01
DAV:   2    -0.158621218285E+04   -0.19327E-02   -0.21162E-02 18248   0.262E-01    0.225E-01
DAV:   3    -0.158620851942E+04    0.36634E-02   -0.11802E-02 18256   0.184E-01    0.877E-02
DAV:   4    -0.158620824234E+04    0.27708E-03   -0.14630E-03 16088   0.571E-02    0.546E-02
DAV:   5    -0.158620812014E+04    0.12220E-03   -0.67651E-04 16848   0.461E-02    0.330E-02
DAV:   6    -0.158620805230E+04    0.67835E-04   -0.31709E-04 16200   0.300E-02    0.160E-02
DAV:   7    -0.158620804360E+04    0.87050E-05   -0.76132E-05 13320   0.135E-02
   7 F= -.15862080E+04 E0= -.15861976E+04  d E =-.852504E-02
       N       E                     dE             d eps       ncg     rms          rms(c)
DAV:   1    -0.158621182688E+04   -0.37746E-02   -0.41564E-01 11704   0.837E-01    0.104E-01
DAV:   2    -0.158621312112E+04   -0.12942E-02   -0.82209E-03 17080   0.163E-01    0.139E-01
DAV:   3    -0.158621173446E+04    0.13867E-02   -0.38516E-03 17112   0.109E-01    0.533E-02
DAV:   4    -0.158621171720E+04    0.17264E-04   -0.54049E-04 16848   0.338E-02    0.338E-02
DAV:   5    -0.158621169471E+04    0.22488E-04   -0.23720E-04 16296   0.274E-02    0.155E-02
DAV:   6    -0.158621169137E+04    0.33423E-05   -0.89022E-05 14040   0.147E-02
   8 F= -.15862117E+04 E0= -.15862014E+04  d E =-.364777E-02
       N       E                     dE             d eps       ncg     rms          rms(c)
DAV:   1    -0.158621338076E+04   -0.16860E-02   -0.12678E-01 11788   0.479E-01    0.909E-02
DAV:   2    -0.158621366480E+04   -0.28404E-03   -0.38703E-03 18152   0.113E-01    0.976E-02
DAV:   3    -0.158621298352E+04    0.68128E-03   -0.21969E-03 18280   0.795E-02    0.396E-02
DAV:   4    -0.158621290999E+04    0.73536E-04   -0.29323E-04 15944   0.255E-02    0.238E-02
DAV:   5    -0.158621287573E+04    0.34256E-04   -0.13058E-04 15512   0.208E-02    0.144E-02
DAV:   6    -0.158621285568E+04    0.20047E-04   -0.55452E-05 12288   0.134E-02    0.638E-03
DAV:   7    -0.158621285436E+04    0.13214E-05   -0.12839E-05  6680   0.653E-03
   9 F= -.15862129E+04 E0= -.15862025E+04  d E =-.116299E-02
       N       E                     dE             d eps       ncg     rms          rms(c)
DAV:   1    -0.158621391002E+04   -0.10543E-02   -0.58569E-02 11788   0.327E-01    0.571E-02
DAV:   2    -0.158621394184E+04   -0.31813E-04   -0.91735E-04 16384   0.503E-02    0.445E-02
DAV:   3    -0.158621385516E+04    0.86678E-04   -0.42882E-04 17424   0.358E-02    0.270E-02
DAV:   4    -0.158621384997E+04    0.51888E-05   -0.10492E-04 14024   0.158E-02    0.128E-02
DAV:   5    -0.158621385855E+04   -0.85806E-05   -0.36574E-05  9312   0.120E-02
  10 F= -.15862139E+04 E0= -.15862036E+04  d E =-.100419E-02
       N       E                     dE             d eps       ncg     rms          rms(c)
DAV:   1    -0.158621461091E+04   -0.76094E-03   -0.69931E-02 11774   0.343E-01    0.447E-02
DAV:   2    -0.158621480808E+04   -0.19717E-03   -0.14653E-03 17664   0.679E-02    0.583E-02
DAV:   3    -0.158621456236E+04    0.24572E-03   -0.71354E-04 17632   0.459E-02    0.225E-02
DAV:   4    -0.158621454757E+04    0.14794E-04   -0.76976E-05 13016   0.137E-02    0.146E-02
DAV:   5    -0.158621453609E+04    0.11472E-04   -0.30914E-05  8744   0.117E-02    0.714E-03
DAV:   6    -0.158621453177E+04    0.43228E-05   -0.11735E-05  6912   0.751E-03
  11 F= -.15862145E+04 E0= -.15862042E+04  d E =-.673222E-03
       N       E                     dE             d eps       ncg     rms          rms(c)
DAV:   1    -0.158621494667E+04   -0.41057E-03   -0.52395E-02 11732   0.298E-01    0.355E-02
DAV:   2    -0.158621503699E+04   -0.90317E-04   -0.71156E-04 17176   0.440E-02    0.372E-02
DAV:   3    -0.158621496032E+04    0.76669E-04   -0.27869E-04 17444   0.289E-02    0.193E-02
DAV:   4    -0.158621496355E+04   -0.32373E-05   -0.46245E-05 10416   0.109E-02    0.965E-03
DAV:   5    -0.158621496673E+04   -0.31756E-05   -0.15985E-05  7704   0.918E-03
  12 F= -.15862150E+04 E0= -.15862047E+04  d E =-.434957E-03
       N       E                     dE             d eps       ncg     rms          rms(c)
DAV:   1    -0.158621516143E+04   -0.19788E-03   -0.55612E-03 11802   0.107E-01    0.264E-02
DAV:   2    -0.158621512547E+04    0.35955E-04   -0.15180E-04 16328   0.207E-02    0.183E-02
DAV:   3    -0.158621510416E+04    0.21309E-04   -0.77861E-05 12736   0.158E-02    0.111E-02
DAV:   4    -0.158621508892E+04    0.15243E-04   -0.18017E-05  7312   0.799E-03    0.559E-03
DAV:   5    -0.158621508097E+04    0.79500E-05   -0.82515E-06  6272   0.581E-03
  13 F= -.15862151E+04 E0= -.15862048E+04  d E =-.114243E-03
       N       E                     dE             d eps       ncg     rms          rms(c)
DAV:   1    -0.158621530889E+04   -0.21997E-03   -0.22486E-02 11788   0.194E-01    0.208E-02
DAV:   2    -0.158621534419E+04   -0.35301E-04   -0.27181E-04 17616   0.259E-02    0.219E-02
DAV:   3    -0.158621531912E+04    0.25075E-04   -0.82040E-05 13296   0.168E-02    0.123E-02
DAV:   4    -0.158621532145E+04   -0.23286E-05   -0.19116E-05  7096   0.748E-03    0.540E-03
DAV:   5    -0.158621532325E+04   -0.18068E-05   -0.75255E-06  6568   0.639E-03
  14 F= -.15862153E+04 E0= -.15862051E+04  d E =-.242283E-03
       N       E                     dE             d eps       ncg     rms          rms(c)
DAV:   1    -0.158621553388E+04   -0.21243E-03   -0.26178E-02 11746   0.210E-01    0.224E-02
DAV:   2    -0.158621555980E+04   -0.25914E-04   -0.32633E-04 17800   0.283E-02    0.237E-02
DAV:   3    -0.158621552719E+04    0.32607E-04   -0.10935E-04 15291   0.187E-02    0.128E-02
DAV:   4    -0.158621551984E+04    0.73477E-05   -0.17844E-05  7216   0.720E-03    0.701E-03
DAV:   5    -0.158621551576E+04    0.40815E-05   -0.86091E-06  6600   0.666E-03
  15 F= -.15862155E+04 E0= -.15862053E+04  d E =-.192504E-03
       N       E                     dE             d eps       ncg     rms          rms(c)
DAV:   1    -0.158621555730E+04   -0.37456E-04   -0.18842E-03 11802   0.612E-02    0.132E-02
DAV:   2    -0.158621556250E+04   -0.52027E-05   -0.21251E-05  6416   0.770E-03    0.686E-03
DAV:   3    -0.158621556663E+04   -0.41266E-05   -0.90216E-06  6328   0.621E-03    0.515E-03
DAV:   4    -0.158621556977E+04   -0.31432E-05   -0.45717E-06  6128   0.467E-03    0.223E-03
DAV:   5    -0.158621557243E+04   -0.26644E-05   -0.24754E-06  6104   0.279E-03
  16 F= -.15862156E+04 E0= -.15862053E+04  d E =-.566745E-04
       N       E                     dE             d eps       ncg     rms          rms(c)
DAV:   1    -0.158621569462E+04   -0.12485E-03   -0.99735E-03 11788   0.130E-01    0.146E-02
DAV:   2    -0.158621569526E+04   -0.64640E-06   -0.10605E-04 15248   0.152E-02    0.125E-02
DAV:   3    -0.158621568747E+04    0.77963E-05   -0.22800E-05  8344   0.973E-03    0.830E-03
DAV:   4    -0.158621568275E+04    0.47127E-05   -0.10435E-05  6128   0.543E-03    0.421E-03
DAV:   5    -0.158621568029E+04    0.24602E-05   -0.48938E-06  6120   0.482E-03
  17 F= -.15862157E+04 E0= -.15862054E+04  d E =-.107861E-03
       N       E                     dE             d eps       ncg     rms          rms(c)
DAV:   1    -0.158621577721E+04   -0.94450E-04   -0.10724E-02 11760   0.134E-01    0.128E-02
DAV:   2    -0.158621578739E+04   -0.10190E-04   -0.94715E-05 14784   0.137E-02    0.110E-02
DAV:   3    -0.158621578466E+04    0.27363E-05   -0.14875E-05  7482   0.764E-03    0.808E-03
DAV:   4    -0.158621578629E+04   -0.16318E-05   -0.97248E-06  6128   0.495E-03    0.242E-03
DAV:   5    -0.158621578696E+04   -0.67110E-06   -0.33660E-06  6120   0.409E-03
  18 F= -.15862158E+04 E0= -.15862056E+04  d E =-.106667E-03
       N       E                     dE             d eps       ncg     rms          rms(c)
DAV:   1    -0.158621587064E+04   -0.84346E-04   -0.80101E-03 11774   0.116E-01    0.134E-02
DAV:   2    -0.158621586641E+04    0.42248E-05   -0.79392E-05 13672   0.132E-02    0.105E-02
DAV:   3    -0.158621586114E+04    0.52729E-05   -0.18763E-05  7656   0.844E-03    0.726E-03
DAV:   4    -0.158621585599E+04    0.51438E-05   -0.73570E-06  6104   0.468E-03    0.366E-03
DAV:   5    -0.158621585314E+04    0.28532E-05   -0.36705E-06  6104   0.398E-03
  19 F= -.15862159E+04 E0= -.15862056E+04  d E =-.661801E-04
       N       E                     dE             d eps       ncg     rms          rms(c)
DAV:   1    -0.158621588176E+04   -0.25764E-04   -0.12334E-03 11788   0.474E-02    0.819E-03
DAV:   2    -0.158621588651E+04   -0.47542E-05   -0.11101E-05  6091   0.539E-03    0.465E-03
DAV:   3    -0.158621588893E+04   -0.24191E-05   -0.45899E-06  6076   0.417E-03    0.342E-03
DAV:   4    -0.158621589128E+04   -0.23460E-05   -0.24336E-06  6083   0.321E-03    0.156E-03
DAV:   5    -0.158621589288E+04   -0.15990E-05   -0.13720E-06  6083   0.209E-03
  20 F= -.15862159E+04 E0= -.15862057E+04  d E =-.397358E-04
       N       E                     dE             d eps       ncg     rms          rms(c)
DAV:   1    -0.158621595610E+04   -0.64822E-04   -0.60248E-03 11760   0.100E-01    0.981E-03
DAV:   2    -0.158621595676E+04   -0.66369E-06   -0.47670E-05 11016   0.953E-03    0.764E-03
DAV:   3    -0.158621595578E+04    0.98257E-06   -0.89038E-06  6522   0.546E-03    0.589E-03
DAV:   4    -0.158621595326E+04    0.25230E-05   -0.49053E-06  6104   0.380E-03    0.168E-03
DAV:   5    -0.158621595292E+04    0.33449E-06   -0.19948E-06  6097   0.293E-03
  21 F= -.15862160E+04 E0= -.15862057E+04  d E =-.600468E-04
       N       E                     dE             d eps       ncg     rms          rms(c)
DAV:   1    -0.158621601192E+04   -0.58665E-04   -0.83626E-03 11760   0.118E-01    0.115E-02
DAV:   2    -0.158621601996E+04   -0.80399E-05   -0.71811E-05 13608   0.107E-02    0.852E-03
DAV:   3    -0.158621602097E+04   -0.10096E-05   -0.82249E-06  6432   0.514E-03    0.608E-03
DAV:   4    -0.158621602288E+04   -0.19037E-05   -0.42631E-06  6128   0.424E-03    0.205E-03
DAV:   5    -0.158621602374E+04   -0.86814E-06   -0.18361E-06  6083   0.291E-03
  22 F= -.15862160E+04 E0= -.15862058E+04  d E =-.708205E-04
       N       E                     dE             d eps       ncg     rms          rms(c)
DAV:   1    -0.158621603899E+04   -0.16113E-04   -0.21021E-04 11698   0.214E-02    0.588E-03
DAV:   2    -0.158621603251E+04    0.64830E-05   -0.43747E-06  6083   0.400E-03    0.325E-03
DAV:   3    -0.158621603084E+04    0.16700E-05   -0.20614E-06  6083   0.367E-03    0.236E-03
DAV:   4    -0.158621602813E+04    0.27020E-05   -0.95223E-07  6083   0.206E-03    0.968E-04
DAV:   5    -0.158621602694E+04    0.11963E-05   -0.48205E-07  6083   0.130E-03
  23 F= -.15862160E+04 E0= -.15862058E+04  d E =-.319321E-05
       N       E                     dE             d eps       ncg     rms          rms(c)
DAV:   1    -0.158621606718E+04   -0.39043E-04   -0.42385E-03 11774   0.840E-02    0.795E-03
DAV:   2    -0.158621606934E+04   -0.21633E-05   -0.22715E-05  7984   0.742E-03    0.581E-03
DAV:   3    -0.158621607016E+04   -0.81746E-06   -0.79532E-06  6185   0.431E-03    0.365E-03
DAV:   4    -0.158621607103E+04   -0.87492E-06   -0.46555E-06  6083   0.381E-03    0.102E-03
DAV:   5    -0.158621607122E+04   -0.19197E-06   -0.23439E-06  6083   0.265E-03
  24 F= -.15862161E+04 E0= -.15862058E+04  d E =-.442867E-04
       N       E                     dE             d eps       ncg     rms          rms(c)
DAV:   1    -0.158621613313E+04   -0.62100E-04   -0.11619E-02 11732   0.139E-01    0.136E-02
DAV:   2    -0.158621613480E+04   -0.16722E-05   -0.11006E-04 15920   0.130E-02    0.103E-02
DAV:   3    -0.158621613216E+04    0.26491E-05   -0.81632E-06  6851   0.559E-03    0.788E-03
DAV:   4    -0.158621612771E+04    0.44487E-05   -0.56518E-06  6128   0.474E-03    0.303E-03
DAV:   5    -0.158621612618E+04    0.15290E-05   -0.25104E-06  6097   0.351E-03
  25 F= -.15862161E+04 E0= -.15862059E+04  d E =-.549535E-04
       N       E                     dE             d eps       ncg     rms          rms(c)
DAV:   1    -0.158621610469E+04    0.23022E-04   -0.16616E-03 11774   0.536E-02    0.743E-03
DAV:   2    -0.158621610851E+04   -0.38287E-05   -0.10102E-05  6083   0.532E-03    0.464E-03
DAV:   3    -0.158621610982E+04   -0.13045E-05   -0.34622E-06  6076   0.375E-03    0.356E-03
DAV:   4    -0.158621611203E+04   -0.22105E-05   -0.18999E-06  6083   0.275E-03    0.142E-03
DAV:   5    -0.158621611325E+04   -0.12195E-05   -0.99540E-07  6083   0.181E-03
  26 F= -.15862161E+04 E0= -.15862059E+04  d E =0.129297E-04
       N       E                     dE             d eps       ncg     rms          rms(c)
DAV:   1    -0.158621614953E+04   -0.37504E-04   -0.44309E-03 11760   0.860E-02    0.764E-03
DAV:   2    -0.158621615030E+04   -0.76948E-06   -0.20903E-05  6322   0.727E-03    0.563E-03
DAV:   3    -0.158621615016E+04    0.14070E-06   -0.67628E-06  6076   0.393E-03    0.315E-03
DAV:   4    -0.158621615005E+04    0.11434E-06   -0.37355E-06  6083   0.346E-03    0.101E-03
DAV:   5    -0.158621615014E+04   -0.95750E-07   -0.17999E-06  6083   0.236E-03
  27 F= -.15862162E+04 E0= -.15862059E+04  d E =-.368949E-04
       N       E                     dE             d eps       ncg     rms          rms(c)
DAV:   1    -0.158621624567E+04   -0.95626E-04   -0.72544E-02 11634   0.347E-01    0.316E-02
DAV:   2    -0.158621628210E+04   -0.36425E-04   -0.60690E-04 17080   0.304E-02    0.244E-02
DAV:   3    -0.158621627188E+04    0.10216E-04   -0.46876E-05 10728   0.110E-02    0.144E-02
DAV:   4    -0.158621626510E+04    0.67789E-05   -0.27795E-05  8560   0.109E-02    0.511E-03
DAV:   5    -0.158621626372E+04    0.13869E-05   -0.77817E-06  6680   0.712E-03
  28 F= -.15862163E+04 E0= -.15862060E+04  d E =-.113574E-03
       N       E                     dE             d eps       ncg     rms          rms(c)
DAV:   1    -0.158621629998E+04   -0.34872E-04   -0.47938E-02 11634   0.282E-01    0.251E-02
DAV:   2    -0.158621632589E+04   -0.25915E-04   -0.40449E-04 16912   0.247E-02    0.195E-02
DAV:   3    -0.158621631976E+04    0.61323E-05   -0.23137E-05  8201   0.892E-03    0.126E-02
DAV:   4    -0.158621631528E+04    0.44769E-05   -0.19692E-05  7776   0.919E-03    0.420E-03
DAV:   5    -0.158621631442E+04    0.85760E-06   -0.60708E-06  6392   0.622E-03
  29 F= -.15862163E+04 E0= -.15862061E+04  d E =-.507075E-04
       N       E                     dE             d eps       ncg     rms          rms(c)
DAV:   1    -0.158621631796E+04   -0.26746E-05   -0.63658E-03 11704   0.103E-01    0.922E-03
DAV:   2    -0.158621632436E+04   -0.64049E-05   -0.52841E-05 11560   0.952E-03    0.715E-03
DAV:   3    -0.158621632500E+04   -0.64229E-06   -0.79754E-06  6268   0.507E-03    0.548E-03
DAV:   4    -0.158621632653E+04   -0.15246E-05   -0.38905E-06  6104   0.355E-03    0.197E-03
DAV:   5    -0.158621632741E+04   -0.87922E-06   -0.18139E-06  6104   0.260E-03
  30 F= -.15862163E+04 E0= -.15862061E+04  d E =-.129832E-04
       N       E                     dE             d eps       ncg     rms          rms(c)
DAV:   1    -0.158621632667E+04   -0.13857E-06   -0.20874E-03 11760   0.593E-02    0.630E-03
DAV:   2    -0.158621632341E+04    0.32600E-05   -0.99521E-06  6070   0.530E-03    0.430E-03
DAV:   3    -0.158621632201E+04    0.13928E-05   -0.30373E-06  6055   0.320E-03    0.303E-03
DAV:   4    -0.158621631978E+04    0.22331E-05   -0.18122E-06  6062   0.262E-03    0.939E-04
DAV:   5    -0.158621631945E+04    0.33045E-06   -0.87162E-07  6062   0.169E-03
  31 F= -.15862163E+04 E0= -.15862061E+04  d E =0.795693E-05
       N       E                     dE             d eps       ncg     rms          rms(c)
DAV:   1    -0.158621632265E+04   -0.28642E-05   -0.63585E-04 11774   0.326E-02    0.290E-03
DAV:   2    -0.158621632288E+04   -0.23272E-06   -0.27073E-06  6041   0.269E-03    0.214E-03
DAV:   3    -0.158621632294E+04   -0.56757E-07   -0.72388E-07  6041   0.140E-03    0.155E-03
DAV:   4    -0.158621632304E+04   -0.10794E-06   -0.49936E-07  6041   0.124E-03    0.374E-04
DAV:   5    -0.158621632306E+04   -0.13446E-07   -0.19429E-07  6041   0.796E-04
  32 F= -.15862163E+04 E0= -.15862061E+04  d E =-.360553E-05
       N       E                     dE             d eps       ncg     rms          rms(c)
DAV:   1    -0.158621632630E+04   -0.32590E-05   -0.19106E-03 11718   0.564E-02    0.514E-03
DAV:   2    -0.158621632734E+04   -0.10390E-05   -0.10275E-05  6070   0.503E-03    0.381E-03
DAV:   3    -0.158621632770E+04   -0.35746E-06   -0.35770E-06  6041   0.295E-03    0.259E-03
DAV:   4    -0.158621632813E+04   -0.42777E-06   -0.22146E-06  6062   0.256E-03    0.572E-04
DAV:   5    -0.158621632815E+04   -0.27140E-07   -0.10480E-06  6062   0.174E-03
  33 F= -.15862163E+04 E0= -.15862061E+04  d E =-.509694E-05
