       N       E                     dE             d eps       ncg     rms          rms(c)
DAV:   1     0.219438212815E+04    0.21944E+04   -0.29004E+05 11620   0.143E+03
DAV:   2    -0.119603642703E+04   -0.33904E+04   -0.32538E+04 13470   0.295E+02
DAV:   3    -0.162576290225E+04   -0.42973E+03   -0.39658E+03 17992   0.818E+01
DAV:   4    -0.165037970938E+04   -0.24617E+02   -0.22972E+02 16336   0.172E+01
DAV:   5    -0.165143342193E+04   -0.10537E+01   -0.10347E+01 17824   0.416E+00    0.414E+01
DAV:   6    -0.161045252680E+04    0.40981E+02   -0.16226E+02 17800   0.176E+01    0.240E+01
DAV:   7    -0.159770443238E+04    0.12748E+02   -0.10414E+02 17944   0.163E+01    0.185E+01
DAV:   8    -0.158651639795E+04    0.11188E+02   -0.66452E+01 17080   0.123E+01    0.109E+01
DAV:   9    -0.158023539286E+04    0.62810E+01   -0.30501E+01 16624   0.868E+00    0.325E+00
DAV:  10    -0.158016434011E+04    0.71053E-01   -0.59950E+00 16920   0.352E+00    0.180E+00
DAV:  11    -0.158014366679E+04    0.20673E-01   -0.79499E-01 15568   0.138E+00    0.133E+00
DAV:  12    -0.158011349581E+04    0.30171E-01   -0.31423E-01 15048   0.787E-01    0.731E-01
DAV:  13    -0.158009887803E+04    0.14618E-01   -0.80081E-02 14920   0.482E-01    0.408E-01
DAV:  14    -0.158009459038E+04    0.42877E-02   -0.29106E-02 17352   0.284E-01    0.249E-01
DAV:  15    -0.158009210348E+04    0.24869E-02   -0.11334E-02 15440   0.165E-01    0.104E-01
DAV:  16    -0.158009200445E+04    0.99021E-04   -0.34583E-03 15992   0.817E-02    0.566E-02
DAV:  17    -0.158009200364E+04    0.81247E-06   -0.95656E-04 16248   0.494E-02    0.372E-02
DAV:  18    -0.158009196603E+04    0.37608E-04   -0.31895E-04 16112   0.321E-02    0.199E-02
DAV:  19    -0.158009195099E+04    0.15041E-04   -0.10120E-04 13816   0.157E-02    0.987E-03
DAV:  20    -0.158009194745E+04    0.35467E-05   -0.26316E-05  7672   0.896E-03
   1 F= -.15800919E+04 E0= -.15800985E+04  d E =-.158009E+04
       N       E                     dE             d eps       ncg     rms          rms(c)
DAV:   1    -0.158472685745E+04   -0.46349E+01   -0.15275E+03 11620   0.591E+01    0.213E+01
DAV:   2    -0.156863720845E+04    0.16090E+02   -0.98289E+01 18264   0.139E+01    0.130E+01
DAV:   3    -0.156272530605E+04    0.59119E+01   -0.57794E+01 19320   0.111E+01    0.952E+00
DAV:   4    -0.155905972980E+04    0.36656E+01   -0.21217E+01 20128   0.658E+00    0.621E+00
DAV:   5    -0.155724890547E+04    0.18108E+01   -0.11216E+01 17128   0.451E+00    0.236E+00
DAV:   6    -0.155709177299E+04    0.15713E+00   -0.26254E+00 17088   0.236E+00    0.145E+00
DAV:   7    -0.155704420581E+04    0.47567E-01   -0.53206E-01 15568   0.115E+00    0.964E-01
DAV:   8    -0.155703609927E+04    0.81065E-02   -0.15351E-01 17376   0.469E-01    0.544E-01
DAV:   9    -0.155704222716E+04   -0.61279E-02   -0.10095E-01 17880   0.332E-01    0.319E-01
DAV:  10    -0.155704307394E+04   -0.84677E-03   -0.20014E-02 16456   0.223E-01    0.270E-01
DAV:  11    -0.155704033391E+04    0.27400E-02   -0.96096E-03 18568   0.143E-01    0.128E-01
DAV:  12    -0.155704003270E+04    0.30122E-03   -0.44263E-03 18040   0.766E-02    0.581E-02
DAV:  13    -0.155704022258E+04   -0.18988E-03   -0.95254E-04 17272   0.416E-02    0.419E-02
DAV:  14    -0.155704026155E+04   -0.38975E-04   -0.47159E-04 16232   0.323E-02    0.221E-02
DAV:  15    -0.155704025869E+04    0.28607E-05   -0.14650E-04 14512   0.169E-02    0.126E-02
DAV:  16    -0.155704025979E+04   -0.11000E-05   -0.37259E-05  8240   0.100E-02
   2 F= -.15570403E+04 E0= -.15570452E+04  d E =0.230517E+02
       N       E                     dE             d eps       ncg     rms          rms(c)
DAV:   1    -0.159896957312E+04   -0.41929E+02   -0.71836E+02 11620   0.447E+01    0.149E+01
DAV:   2    -0.158953709961E+04    0.94325E+01   -0.27326E+01 16913   0.850E+00    0.738E+00
DAV:   3    -0.158815974950E+04    0.13774E+01   -0.16129E+01 16976   0.604E+00    0.609E+00
DAV:   4    -0.158642581089E+04    0.17339E+01   -0.75059E+00 17632   0.449E+00    0.339E+00
DAV:   5    -0.158583430686E+04    0.59150E+00   -0.37993E+00 16608   0.300E+00    0.112E+00
DAV:   6    -0.158581630060E+04    0.18006E-01   -0.76990E-01 15480   0.137E+00    0.714E-01
DAV:   7    -0.158581464800E+04    0.16526E-02   -0.12848E-01 15160   0.568E-01    0.524E-01
DAV:   8    -0.158581763933E+04   -0.29913E-02   -0.37726E-02 15728   0.254E-01    0.278E-01
DAV:   9    -0.158582687412E+04   -0.92348E-02   -0.33348E-02 16408   0.208E-01    0.214E-01
DAV:  10    -0.158582605822E+04    0.81590E-03   -0.55700E-03 17008   0.131E-01    0.134E-01
DAV:  11    -0.158582548454E+04    0.57367E-03   -0.32461E-03 17440   0.772E-02    0.531E-02
DAV:  12    -0.158582581299E+04   -0.32845E-03   -0.19022E-03 17304   0.546E-02    0.522E-02
DAV:  13    -0.158582592874E+04   -0.11575E-03   -0.33250E-04 15424   0.257E-02    0.262E-02
DAV:  14    -0.158582591787E+04    0.10869E-04   -0.10651E-04 13728   0.148E-02    0.110E-02
DAV:  15    -0.158582591260E+04    0.52713E-05   -0.30736E-05  7248   0.839E-03
   3 F= -.15858259E+04 E0= -.15858116E+04  d E =-.287857E+02
       N       E                     dE             d eps       ncg     rms          rms(c)
DAV:   1    -0.158596049722E+04   -0.13458E+00   -0.15153E+01 11620   0.512E+00    0.677E-01
DAV:   2    -0.158597838563E+04   -0.17888E-01   -0.27284E-01 17328   0.765E-01    0.610E-01
DAV:   3    -0.158596068005E+04    0.17706E-01   -0.85403E-02 18368   0.478E-01    0.355E-01
DAV:   4    -0.158595766616E+04    0.30139E-02   -0.18281E-02 16784   0.199E-01    0.226E-01
DAV:   5    -0.158595644480E+04    0.12214E-02   -0.10195E-02 15912   0.163E-01    0.111E-01
DAV:   6    -0.158595605737E+04    0.38743E-03   -0.38345E-03 16304   0.108E-01    0.593E-02
DAV:   7    -0.158595596706E+04    0.90308E-04   -0.10408E-03 15984   0.494E-02    0.355E-02
DAV:   8    -0.158595594399E+04    0.23075E-04   -0.24872E-04 16104   0.231E-02    0.215E-02
DAV:   9    -0.158595593982E+04    0.41648E-05   -0.81658E-05 13600   0.151E-02
   4 F= -.15859559E+04 E0= -.15859425E+04  d E =-.130027E+00
       N       E                     dE             d eps       ncg     rms          rms(c)
DAV:   1    -0.158598632889E+04   -0.30385E-01   -0.33700E+00 11620   0.240E+00    0.369E-01
DAV:   2    -0.158599499289E+04   -0.86640E-02   -0.89403E-02 18200   0.495E-01    0.420E-01
DAV:   3    -0.158598329792E+04    0.11695E-01   -0.41813E-02 18536   0.332E-01    0.176E-01
DAV:   4    -0.158598241483E+04    0.88309E-03   -0.55049E-03 16680   0.109E-01    0.121E-01
DAV:   5    -0.158598198808E+04    0.42675E-03   -0.26124E-03 16080   0.846E-02    0.670E-02
DAV:   6    -0.158598182358E+04    0.16450E-03   -0.12372E-03 15992   0.604E-02    0.373E-02
DAV:   7    -0.158598177066E+04    0.52917E-04   -0.35695E-04 15040   0.299E-02    0.198E-02
DAV:   8    -0.158598177400E+04   -0.33388E-05   -0.79717E-05 13080   0.130E-02
   5 F= -.15859818E+04 E0= -.15859680E+04  d E =-.258342E-01
       N       E                     dE             d eps       ncg     rms          rms(c)
DAV:   1    -0.158599149064E+04   -0.97200E-02   -0.60905E-01 11760   0.110E+00    0.232E-01
DAV:   2    -0.158599020691E+04    0.12837E-02   -0.10246E-02 16632   0.151E-01    0.143E-01
DAV:   3    -0.158598971801E+04    0.48890E-03   -0.49576E-03 18552   0.116E-01    0.109E-01
DAV:   4    -0.158598922046E+04    0.49755E-03   -0.19471E-03 16248   0.664E-02    0.513E-02
DAV:   5    -0.158598920131E+04    0.19152E-04   -0.85398E-04 15912   0.468E-02    0.266E-02
DAV:   6    -0.158598918219E+04    0.19122E-04   -0.23413E-04 15704   0.267E-02    0.148E-02
DAV:   7    -0.158598917928E+04    0.29120E-05   -0.40861E-05  8944   0.109E-02
   6 F= -.15859892E+04 E0= -.15859758E+04  d E =-.740527E-02
       N       E                     dE             d eps       ncg     rms          rms(c)
DAV:   1    -0.158599820699E+04   -0.90248E-02   -0.55550E-01 11690   0.994E-01    0.181E-01
DAV:   2    -0.158599937527E+04   -0.11683E-02   -0.16281E-02 18360   0.216E-01    0.191E-01
DAV:   3    -0.158599698538E+04    0.23899E-02   -0.85987E-03 18656   0.150E-01    0.826E-02
DAV:   4    -0.158599673660E+04    0.24878E-03   -0.12643E-03 16424   0.519E-02    0.537E-02
DAV:   5    -0.158599660860E+04    0.12800E-03   -0.59277E-04 16024   0.412E-02    0.289E-02
DAV:   6    -0.158599656137E+04    0.47232E-04   -0.24890E-04 16056   0.276E-02    0.156E-02
DAV:   7    -0.158599655083E+04    0.10537E-04   -0.65796E-05 12896   0.132E-02    0.906E-03
DAV:   8    -0.158599655338E+04   -0.25467E-05   -0.14147E-05  7008   0.655E-03
   7 F= -.15859966E+04 E0= -.15859830E+04  d E =-.737410E-02
       N       E                     dE             d eps       ncg     rms          rms(c)
DAV:   1    -0.158600026400E+04   -0.37132E-02   -0.40336E-01 11641   0.824E-01    0.954E-02
DAV:   2    -0.158600128153E+04   -0.10175E-02   -0.68608E-03 17688   0.137E-01    0.124E-01
DAV:   3    -0.158600028757E+04    0.99396E-03   -0.30270E-03 17833   0.915E-02    0.524E-02
DAV:   4    -0.158600026334E+04    0.24229E-04   -0.42204E-04 16960   0.297E-02    0.339E-02
DAV:   5    -0.158600024458E+04    0.18757E-04   -0.22677E-04 15936   0.258E-02    0.152E-02
DAV:   6    -0.158600023852E+04    0.60681E-05   -0.82415E-05 13792   0.154E-02
   8 F= -.15860002E+04 E0= -.15859868E+04  d E =-.368514E-02
       N       E                     dE             d eps       ncg     rms          rms(c)
DAV:   1    -0.158600211920E+04   -0.18746E-02   -0.14860E-01 11746   0.513E-01    0.873E-02
DAV:   2    -0.158600227113E+04   -0.15193E-03   -0.33670E-03 18280   0.960E-02    0.858E-02
DAV:   3    -0.158600181324E+04    0.45789E-03   -0.17239E-03 18728   0.675E-02    0.411E-02
DAV:   4    -0.158600173984E+04    0.73402E-04   -0.28888E-04 16368   0.246E-02    0.261E-02
DAV:   5    -0.158600169840E+04    0.41439E-04   -0.13921E-04 15504   0.204E-02    0.141E-02
DAV:   6    -0.158600168168E+04    0.16723E-04   -0.52167E-05 11144   0.136E-02    0.684E-03
DAV:   7    -0.158600168008E+04    0.15936E-05   -0.13934E-05  6760   0.691E-03
   9 F= -.15860017E+04 E0= -.15859881E+04  d E =-.144157E-02
       N       E                     dE             d eps       ncg     rms          rms(c)
DAV:   1    -0.158600290321E+04   -0.12215E-02   -0.63809E-02 11746   0.339E-01    0.560E-02
DAV:   2    -0.158600291485E+04   -0.11635E-04   -0.83987E-04 16856   0.435E-02    0.400E-02
DAV:   3    -0.158600286799E+04    0.46854E-04   -0.34597E-04 18504   0.310E-02    0.280E-02
DAV:   4    -0.158600285902E+04    0.89719E-05   -0.10415E-04 14408   0.151E-02    0.134E-02
DAV:   5    -0.158600286773E+04   -0.87104E-05   -0.39849E-05  9600   0.118E-02
  10 F= -.15860029E+04 E0= -.15859894E+04  d E =-.118765E-02
       N       E                     dE             d eps       ncg     rms          rms(c)
DAV:   1    -0.158600400844E+04   -0.11494E-02   -0.10800E-01 11711   0.426E-01    0.488E-02
DAV:   2    -0.158600416270E+04   -0.15426E-03   -0.15328E-03 18088   0.610E-02    0.543E-02
DAV:   3    -0.158600399452E+04    0.16818E-03   -0.59620E-04 18570   0.403E-02    0.278E-02
DAV:   4    -0.158600397381E+04    0.20712E-04   -0.84963E-05 13624   0.140E-02    0.180E-02
DAV:   5    -0.158600395922E+04    0.14589E-04   -0.47413E-05 10568   0.128E-02    0.791E-03
DAV:   6    -0.158600395445E+04    0.47745E-05   -0.14938E-05  7680   0.889E-03
  11 F= -.15860040E+04 E0= -.15859904E+04  d E =-.108671E-02
       N       E                     dE             d eps       ncg     rms          rms(c)
DAV:   1    -0.158600483007E+04   -0.87085E-03   -0.11477E-01 11655   0.440E-01    0.461E-02
DAV:   2    -0.158600493644E+04   -0.10637E-03   -0.11447E-03 17112   0.482E-02    0.415E-02
DAV:   3    -0.158600487646E+04    0.59974E-04   -0.29409E-04 17701   0.289E-02    0.278E-02
DAV:   4    -0.158600487221E+04    0.42537E-05   -0.80037E-05 13080   0.133E-02    0.110E-02
DAV:   5    -0.158600487441E+04   -0.21978E-05   -0.25518E-05  8421   0.110E-02
  12 F= -.15860049E+04 E0= -.15859914E+04  d E =-.919963E-03
       N       E                     dE             d eps       ncg     rms          rms(c)
DAV:   1    -0.158600514513E+04   -0.27292E-03   -0.62137E-03 11802   0.115E-01    0.309E-02
DAV:   2    -0.158600508651E+04    0.58612E-04   -0.17061E-04 16776   0.202E-02    0.178E-02
DAV:   3    -0.158600506947E+04    0.17049E-04   -0.83391E-05 13440   0.152E-02    0.130E-02
DAV:   4    -0.158600505188E+04    0.17587E-04   -0.24503E-05  8320   0.983E-03    0.700E-03
DAV:   5    -0.158600504018E+04    0.11699E-04   -0.11355E-05  6368   0.670E-03    0.273E-03
DAV:   6    -0.158600503780E+04    0.23777E-05   -0.38560E-06  6288   0.424E-03
  13 F= -.15860050E+04 E0= -.15859915E+04  d E =-.163393E-03
       N       E                     dE             d eps       ncg     rms          rms(c)
DAV:   1    -0.158600558990E+04   -0.54972E-03   -0.54162E-02 11676   0.301E-01    0.295E-02
DAV:   2    -0.158600563325E+04   -0.43354E-04   -0.48872E-04 16896   0.299E-02    0.255E-02
DAV:   3    -0.158600561606E+04    0.17193E-04   -0.81211E-05 13829   0.160E-02    0.187E-02
DAV:   4    -0.158600561544E+04    0.62435E-06   -0.42196E-05 10072   0.978E-03    0.608E-03
DAV:   5    -0.158600561588E+04   -0.44711E-06   -0.99191E-06  7072   0.720E-03
  14 F= -.15860056E+04 E0= -.15859921E+04  d E =-.578080E-03
       N       E                     dE             d eps       ncg     rms          rms(c)
DAV:   1    -0.158600617994E+04   -0.56451E-03   -0.74290E-02 11676   0.352E-01    0.351E-02
DAV:   2    -0.158600622034E+04   -0.40400E-04   -0.72646E-04 16984   0.370E-02    0.307E-02
DAV:   3    -0.158600618896E+04    0.31380E-04   -0.15399E-04 16248   0.210E-02    0.217E-02
DAV:   4    -0.158600617244E+04    0.16523E-04   -0.42148E-05  9856   0.100E-02    0.115E-02
DAV:   5    -0.158600616424E+04    0.81974E-05   -0.18881E-05  7576   0.897E-03
  15 F= -.15860062E+04 E0= -.15859926E+04  d E =-.548360E-03
       N       E                     dE             d eps       ncg     rms          rms(c)
DAV:   1    -0.158600624684E+04   -0.74400E-04   -0.24686E-03 11802   0.728E-02    0.185E-02
DAV:   2    -0.158600625081E+04   -0.39696E-05   -0.45074E-05  9624   0.114E-02    0.996E-03
DAV:   3    -0.158600625329E+04   -0.24816E-05   -0.18775E-05  7761   0.910E-03    0.758E-03
DAV:   4    -0.158600625688E+04   -0.35887E-05   -0.77969E-06  6488   0.611E-03    0.367E-03
DAV:   5    -0.158600626146E+04   -0.45835E-05   -0.40592E-06  6104   0.381E-03
  16 F= -.15860063E+04 E0= -.15859927E+04  d E =-.972208E-04
       N       E                     dE             d eps       ncg     rms          rms(c)
DAV:   1    -0.158600661566E+04   -0.35878E-03   -0.32466E-02 11718   0.233E-01    0.238E-02
DAV:   2    -0.158600662383E+04   -0.81661E-05   -0.29929E-04 16944   0.224E-02    0.185E-02
DAV:   3    -0.158600661522E+04    0.86076E-05   -0.35438E-05  9401   0.112E-02    0.144E-02
DAV:   4    -0.158600660593E+04    0.92921E-05   -0.18745E-05  6928   0.766E-03    0.700E-03
DAV:   5    -0.158600660159E+04    0.43348E-05   -0.92430E-06  6376   0.640E-03
  17 F= -.15860066E+04 E0= -.15859930E+04  d E =-.340130E-03
       N       E                     dE             d eps       ncg     rms          rms(c)
DAV:   1    -0.158600693322E+04   -0.32729E-03   -0.41264E-02 11676   0.262E-01    0.240E-02
DAV:   2    -0.158600696075E+04   -0.27525E-04   -0.35166E-04 17016   0.235E-02    0.188E-02
DAV:   3    -0.158600695755E+04    0.31931E-05   -0.22566E-05  8203   0.955E-03    0.148E-02
DAV:   4    -0.158600695652E+04    0.10347E-05   -0.23407E-05  7032   0.825E-03    0.372E-03
DAV:   5    -0.158600695711E+04   -0.58632E-06   -0.65832E-06  6352   0.578E-03
  18 F= -.15860070E+04 E0= -.15859934E+04  d E =-.355513E-03
       N       E                     dE             d eps       ncg     rms          rms(c)
DAV:   1    -0.158600713629E+04   -0.17977E-03   -0.11558E-02 11746   0.141E-01    0.189E-02
DAV:   2    -0.158600712206E+04    0.14227E-04   -0.13386E-04 16192   0.157E-02    0.125E-02
DAV:   3    -0.158600711465E+04    0.74062E-05   -0.24667E-05  8401   0.974E-03    0.932E-03
DAV:   4    -0.158600710730E+04    0.73553E-05   -0.11074E-05  6504   0.673E-03    0.546E-03
DAV:   5    -0.158600710123E+04    0.60706E-05   -0.61444E-06  6128   0.474E-03
  19 F= -.15860071E+04 E0= -.15859935E+04  d E =-.144122E-03
       N       E                     dE             d eps       ncg     rms          rms(c)
DAV:   1    -0.158600725470E+04   -0.14740E-03   -0.95953E-03 11732   0.128E-01    0.152E-02
DAV:   2    -0.158600726468E+04   -0.99860E-05   -0.84698E-05 14336   0.121E-02    0.104E-02
DAV:   3    -0.158600726607E+04   -0.13819E-05   -0.12355E-05  7186   0.668E-03    0.805E-03
DAV:   4    -0.158600726950E+04   -0.34358E-05   -0.68467E-06  6256   0.536E-03    0.334E-03
DAV:   5    -0.158600727188E+04   -0.23840E-05   -0.30709E-06  6104   0.375E-03
  20 F= -.15860073E+04 E0= -.15859937E+04  d E =-.170657E-03
       N       E                     dE             d eps       ncg     rms          rms(c)
DAV:   1    -0.158600747974E+04   -0.21024E-03   -0.21358E-02 11676   0.189E-01    0.179E-02
DAV:   2    -0.158600748721E+04   -0.74752E-05   -0.18545E-04 16616   0.169E-02    0.138E-02
DAV:   3    -0.158600748377E+04    0.34469E-05   -0.12291E-05  7428   0.711E-03    0.107E-02
DAV:   4    -0.158600747824E+04    0.55227E-05   -0.11060E-05  6496   0.625E-03    0.357E-03
DAV:   5    -0.158600747709E+04    0.11551E-05   -0.41255E-06  6152   0.450E-03
  21 F= -.15860075E+04 E0= -.15859939E+04  d E =-.205205E-03
       N       E                     dE             d eps       ncg     rms          rms(c)
DAV:   1    -0.158600767260E+04   -0.19436E-03   -0.26845E-02 11676   0.212E-01    0.208E-02
DAV:   2    -0.158600769252E+04   -0.19921E-04   -0.23147E-04 17016   0.189E-02    0.152E-02
DAV:   3    -0.158600769290E+04   -0.37960E-06   -0.16349E-05  7849   0.778E-03    0.112E-02
DAV:   4    -0.158600769477E+04   -0.18620E-05   -0.11726E-05  7112   0.730E-03    0.420E-03
DAV:   5    -0.158600769660E+04   -0.18308E-05   -0.49153E-06  6168   0.493E-03
  22 F= -.15860077E+04 E0= -.15859941E+04  d E =-.219507E-03
       N       E                     dE             d eps       ncg     rms          rms(c)
DAV:   1    -0.158600774661E+04   -0.51844E-04   -0.81955E-04 11774   0.420E-02    0.113E-02
DAV:   2    -0.158600773188E+04    0.14727E-04   -0.15106E-05  6120   0.728E-03    0.608E-03
DAV:   3    -0.158600772810E+04    0.37869E-05   -0.69031E-06  6104   0.658E-03    0.457E-03
DAV:   4    -0.158600772292E+04    0.51747E-05   -0.30888E-06  6104   0.390E-03    0.200E-03
DAV:   5    -0.158600772020E+04    0.27216E-05   -0.16262E-06  6104   0.233E-03
  23 F= -.15860077E+04 E0= -.15859941E+04  d E =-.236035E-04
       N       E                     dE             d eps       ncg     rms          rms(c)
DAV:   1    -0.158600785627E+04   -0.13335E-03   -0.13792E-02 11683   0.152E-01    0.144E-02
DAV:   2    -0.158600786544E+04   -0.91697E-05   -0.11647E-04 15896   0.133E-02    0.109E-02
DAV:   3    -0.158600786516E+04    0.28704E-06   -0.83501E-06  6723   0.538E-03    0.748E-03
DAV:   4    -0.158600786550E+04   -0.34752E-06   -0.65098E-06  6344   0.526E-03    0.212E-03
DAV:   5    -0.158600786559E+04   -0.85058E-07   -0.20278E-06  6090   0.337E-03
  24 F= -.15860079E+04 E0= -.15859943E+04  d E =-.145390E-03
       N       E                     dE             d eps       ncg     rms          rms(c)
DAV:   1    -0.158600803117E+04   -0.16566E-03   -0.23462E-02 11676   0.198E-01    0.188E-02
DAV:   2    -0.158600803700E+04   -0.58310E-05   -0.20269E-04 16792   0.177E-02    0.141E-02
DAV:   3    -0.158600803237E+04    0.46285E-05   -0.13365E-05  7528   0.714E-03    0.103E-02
DAV:   4    -0.158600802678E+04    0.55936E-05   -0.10206E-05  6688   0.673E-03    0.441E-03
DAV:   5    -0.158600802459E+04    0.21849E-05   -0.47381E-06  6152   0.491E-03
  25 F= -.15860080E+04 E0= -.15859944E+04  d E =-.159001E-03
       N       E                     dE             d eps       ncg     rms          rms(c)
DAV:   1    -0.158600803752E+04   -0.10746E-04   -0.43848E-04 11774   0.315E-02    0.856E-03
DAV:   2    -0.158600804260E+04   -0.50772E-05   -0.80149E-06  6104   0.515E-03    0.466E-03
DAV:   3    -0.158600804428E+04   -0.16779E-05   -0.38119E-06  6104   0.464E-03    0.358E-03
DAV:   4    -0.158600804716E+04   -0.28822E-05   -0.18929E-06  6104   0.294E-03    0.140E-03
DAV:   5    -0.158600804919E+04   -0.20341E-05   -0.97024E-07  6104   0.173E-03
  26 F= -.15860080E+04 E0= -.15859945E+04  d E =-.246021E-04
       N       E                     dE             d eps       ncg     rms          rms(c)
DAV:   1    -0.158600815116E+04   -0.10400E-03   -0.93283E-03 11690   0.125E-01    0.124E-02
DAV:   2    -0.158600815103E+04    0.13658E-06   -0.77770E-05 14056   0.112E-02    0.913E-03
DAV:   3    -0.158600814862E+04    0.24031E-05   -0.87229E-06  6570   0.536E-03    0.654E-03
DAV:   4    -0.158600814564E+04    0.29863E-05   -0.46536E-06  6128   0.456E-03    0.305E-03
DAV:   5    -0.158600814420E+04    0.14413E-05   -0.23596E-06  6104   0.338E-03
  27 F= -.15860081E+04 E0= -.15859945E+04  d E =-.950028E-04
       N       E                     dE             d eps       ncg     rms          rms(c)
DAV:   1    -0.158600823800E+04   -0.92362E-04   -0.11649E-02 11676   0.139E-01    0.128E-02
DAV:   2    -0.158600824707E+04   -0.90711E-05   -0.99836E-05 15480   0.122E-02    0.984E-03
DAV:   3    -0.158600824714E+04   -0.64678E-07   -0.70151E-06  6689   0.508E-03    0.729E-03
DAV:   4    -0.158600824807E+04   -0.93498E-06   -0.58158E-06  6176   0.464E-03    0.183E-03
DAV:   5    -0.158600824833E+04   -0.26033E-06   -0.17722E-06  6083   0.308E-03
  28 F= -.15860082E+04 E0= -.15859946E+04  d E =-.104135E-03
       N       E                     dE             d eps       ncg     rms          rms(c)
DAV:   1    -0.158600829450E+04   -0.46429E-04   -0.22202E-03 11704   0.620E-02    0.853E-03
DAV:   2    -0.158600828696E+04    0.75406E-05   -0.16672E-05  6347   0.673E-03    0.506E-03
DAV:   3    -0.158600828482E+04    0.21384E-05   -0.63413E-06  6126   0.497E-03    0.378E-03
DAV:   4    -0.158600828197E+04    0.28511E-05   -0.30806E-06  6083   0.351E-03    0.197E-03
DAV:   5    -0.158600828024E+04    0.17323E-05   -0.18538E-06  6083   0.242E-03
  29 F= -.15860083E+04 E0= -.15859947E+04  d E =-.319058E-04
       N       E                     dE             d eps       ncg     rms          rms(c)
DAV:   1    -0.158600832894E+04   -0.46972E-04   -0.38029E-03 11690   0.800E-02    0.900E-03
DAV:   2    -0.158600833346E+04   -0.45151E-05   -0.25103E-05  8560   0.771E-03    0.623E-03
DAV:   3    -0.158600833489E+04   -0.14293E-05   -0.87656E-06  6267   0.500E-03    0.473E-03
DAV:   4    -0.158600833718E+04   -0.22910E-05   -0.49405E-06  6083   0.386E-03    0.191E-03
DAV:   5    -0.158600833844E+04   -0.12614E-05   -0.26903E-06  6083   0.284E-03
  30 F= -.15860083E+04 E0= -.15859947E+04  d E =-.582015E-04
       N       E                     dE             d eps       ncg     rms          rms(c)
DAV:   1    -0.158600839428E+04   -0.57103E-04   -0.48641E-03 11690   0.899E-02    0.898E-03
DAV:   2    -0.158600839321E+04    0.10642E-05   -0.36740E-05  9552   0.849E-03    0.653E-03
DAV:   3    -0.158600839226E+04    0.95927E-06   -0.89989E-06  6168   0.508E-03    0.462E-03
DAV:   4    -0.158600839035E+04    0.19019E-05   -0.46936E-06  6083   0.406E-03    0.195E-03
DAV:   5    -0.158600838976E+04    0.59575E-06   -0.25754E-06  6083   0.298E-03
  31 F= -.15860084E+04 E0= -.15859948E+04  d E =-.513204E-04
       N       E                     dE             d eps       ncg     rms          rms(c)
DAV:   1    -0.158600842537E+04   -0.35014E-04   -0.28114E-03 11690   0.686E-02    0.714E-03
DAV:   2    -0.158600842912E+04   -0.37488E-05   -0.17965E-05  6368   0.661E-03    0.499E-03
DAV:   3    -0.158600843049E+04   -0.13689E-05   -0.68388E-06  6099   0.429E-03    0.368E-03
DAV:   4    -0.158600843246E+04   -0.19716E-05   -0.39552E-06  6083   0.342E-03    0.141E-03
DAV:   5    -0.158600843331E+04   -0.85075E-06   -0.21969E-06  6083   0.256E-03
  32 F= -.15860084E+04 E0= -.15859948E+04  d E =-.435499E-04
       N       E                     dE             d eps       ncg     rms          rms(c)
DAV:   1    -0.158600846969E+04   -0.37235E-04   -0.22000E-03 11690   0.607E-02    0.682E-03
DAV:   2    -0.158600846643E+04    0.32673E-05   -0.15196E-05  7347   0.614E-03    0.456E-03
DAV:   3    -0.158600846532E+04    0.11100E-05   -0.59812E-06  6116   0.417E-03    0.326E-03
DAV:   4    -0.158600846366E+04    0.16587E-05   -0.32391E-06  6083   0.326E-03    0.169E-03
DAV:   5    -0.158600846279E+04    0.86419E-06   -0.19742E-06  6083   0.248E-03
  33 F= -.15860085E+04 E0= -.15859948E+04  d E =-.294845E-04
       N       E                     dE             d eps       ncg     rms          rms(c)
DAV:   1    -0.158600849547E+04   -0.31812E-04   -0.27331E-03 11690   0.674E-02    0.668E-03
DAV:   2    -0.158600849820E+04   -0.27295E-05   -0.17172E-05  6968   0.640E-03    0.486E-03
DAV:   3    -0.158600849919E+04   -0.99049E-06   -0.64179E-06  6128   0.404E-03    0.354E-03
DAV:   4    -0.158600850071E+04   -0.15182E-05   -0.39428E-06  6083   0.333E-03    0.990E-04
DAV:   5    -0.158600850110E+04   -0.38808E-06   -0.20714E-06  6083   0.249E-03
  34 F= -.15860085E+04 E0= -.15859949E+04  d E =-.383029E-04
       N       E                     dE             d eps       ncg     rms          rms(c)
DAV:   1    -0.158600853813E+04   -0.37427E-04   -0.32124E-03 11690   0.731E-02    0.749E-03
DAV:   2    -0.158600853575E+04    0.23830E-05   -0.20987E-05  7800   0.707E-03    0.519E-03
DAV:   3    -0.158600853462E+04    0.11309E-05   -0.76650E-06  6185   0.448E-03    0.341E-03
DAV:   4    -0.158600853315E+04    0.14710E-05   -0.41898E-06  6083   0.369E-03    0.168E-03
DAV:   5    -0.158600853261E+04    0.54210E-06   -0.24854E-06  6083   0.284E-03
  35 F= -.15860085E+04 E0= -.15859949E+04  d E =-.315120E-04
       N       E                     dE             d eps       ncg     rms          rms(c)
DAV:   1    -0.158600854780E+04   -0.14654E-04   -0.85282E-04 11690   0.380E-02    0.491E-03
DAV:   2    -0.158600855083E+04   -0.30256E-05   -0.73119E-06  6020   0.428E-03    0.321E-03
DAV:   3    -0.158600855182E+04   -0.99133E-06   -0.31359E-06  5999   0.316E-03    0.244E-03
DAV:   4    -0.158600855334E+04   -0.15191E-05   -0.17385E-06  6020   0.228E-03    0.118E-03
DAV:   5    -0.158600855431E+04   -0.96835E-06   -0.10316E-06  6020   0.176E-03
  36 F= -.15860086E+04 E0= -.15859949E+04  d E =-.217007E-04
       N       E                     dE             d eps       ncg     rms          rms(c)
DAV:   1    -0.158600858181E+04   -0.28471E-04   -0.21414E-03 11690   0.596E-02    0.584E-03
DAV:   2    -0.158600858100E+04    0.81019E-06   -0.12797E-05  6568   0.558E-03    0.421E-03
DAV:   3    -0.158600858058E+04    0.42105E-06   -0.48086E-06  6136   0.354E-03    0.287E-03
DAV:   4    -0.158600857967E+04    0.90569E-06   -0.28236E-06  6041   0.300E-03    0.102E-03
DAV:   5    -0.158600857958E+04    0.91123E-07   -0.15882E-06  6041   0.223E-03
  37 F= -.15860086E+04 E0= -.15859949E+04  d E =-.252741E-04
       N       E                     dE             d eps       ncg     rms          rms(c)
DAV:   1    -0.158600861785E+04   -0.38174E-04   -0.69562E-03 11648   0.108E-01    0.102E-02
DAV:   2    -0.158600862398E+04   -0.61304E-05   -0.59459E-05 12280   0.975E-03    0.779E-03
DAV:   3    -0.158600862470E+04   -0.72715E-06   -0.77677E-06  6459   0.494E-03    0.554E-03
DAV:   4    -0.158600862598E+04   -0.12768E-05   -0.40941E-06  6104   0.388E-03    0.148E-03
DAV:   5    -0.158600862634E+04   -0.35575E-06   -0.15853E-06  6076   0.258E-03
  38 F= -.15860086E+04 E0= -.15859950E+04  d E =-.467551E-04
       N       E                     dE             d eps       ncg     rms          rms(c)
DAV:   1    -0.158600862237E+04    0.36106E-05   -0.41702E-04 11690   0.275E-02    0.480E-03
DAV:   2    -0.158600861771E+04    0.46621E-05   -0.30449E-06  5999   0.318E-03    0.274E-03
DAV:   3    -0.158600861629E+04    0.14151E-05   -0.11856E-06  5971   0.245E-03    0.211E-03
DAV:   4    -0.158600861447E+04    0.18259E-05   -0.57433E-07  5999   0.167E-03    0.969E-04
DAV:   5    -0.158600861337E+04    0.10967E-05   -0.30473E-07  5999   0.102E-03
  39 F= -.15860086E+04 E0= -.15859950E+04  d E =0.129663E-04
       N       E                     dE             d eps       ncg     rms          rms(c)
DAV:   1    -0.158600864062E+04   -0.26149E-04   -0.31964E-03 11683   0.729E-02    0.651E-03
DAV:   2    -0.158600864147E+04   -0.84850E-06   -0.15699E-05  6195   0.624E-03    0.481E-03
DAV:   3    -0.158600864166E+04   -0.19359E-06   -0.51818E-06  6076   0.351E-03    0.321E-03
DAV:   4    -0.158600864174E+04   -0.84810E-07   -0.32158E-06  5999   0.307E-03    0.818E-04
DAV:   5    -0.158600864184E+04   -0.95564E-07   -0.14907E-06  5999   0.208E-03
  40 F= -.15860086E+04 E0= -.15859950E+04  d E =-.284686E-04
       N       E                     dE             d eps       ncg     rms          rms(c)
DAV:   1    -0.158600872334E+04   -0.81592E-04   -0.61371E-02 11620   0.319E-01    0.292E-02
DAV:   2    -0.158600875294E+04   -0.29603E-04   -0.51782E-04 17096   0.278E-02    0.224E-02
DAV:   3    -0.158600874500E+04    0.79364E-05   -0.36531E-05  9602   0.102E-02    0.147E-02
DAV:   4    -0.158600873766E+04    0.73450E-05   -0.25359E-05  8312   0.102E-02    0.507E-03
DAV:   5    -0.158600873621E+04    0.14446E-05   -0.81214E-06  6632   0.671E-03
  41 F= -.15860087E+04 E0= -.15859951E+04  d E =-.943733E-04
       N       E                     dE             d eps       ncg     rms          rms(c)
DAV:   1    -0.158600872538E+04    0.12279E-04   -0.46028E-04 11690   0.312E-02    0.810E-03
DAV:   2    -0.158600872942E+04   -0.40454E-05   -0.65568E-06  6062   0.482E-03    0.415E-03
DAV:   3    -0.158600873156E+04   -0.21318E-05   -0.29009E-06  6062   0.415E-03    0.314E-03
DAV:   4    -0.158600873348E+04   -0.19199E-05   -0.13557E-06  6041   0.284E-03    0.151E-03
DAV:   5    -0.158600873522E+04   -0.17485E-05   -0.74255E-07  6041   0.161E-03
  42 F= -.15860087E+04 E0= -.15859951E+04  d E =0.988684E-06
       N       E                     dE             d eps       ncg     rms          rms(c)
DAV:   1    -0.158600875764E+04   -0.24167E-04   -0.16923E-03 11676   0.540E-02    0.706E-03
DAV:   2    -0.158600875209E+04    0.55480E-05   -0.10904E-05  6057   0.549E-03    0.422E-03
DAV:   3    -0.158600875025E+04    0.18413E-05   -0.39278E-06  6034   0.377E-03    0.303E-03
DAV:   4    -0.158600874827E+04    0.19808E-05   -0.18400E-06  5999   0.276E-03    0.167E-03
DAV:   5    -0.158600874691E+04    0.13620E-05   -0.11176E-06  5999   0.191E-03
  43 F= -.15860087E+04 E0= -.15859951E+04  d E =-.116862E-04
       N       E                     dE             d eps       ncg     rms          rms(c)
DAV:   1    -0.158600875430E+04   -0.60242E-05   -0.80555E-04 11676   0.365E-02    0.362E-03
DAV:   2    -0.158600875481E+04   -0.51409E-06   -0.51919E-06  5978   0.357E-03    0.273E-03
DAV:   3    -0.158600875495E+04   -0.14367E-06   -0.19586E-06  5971   0.235E-03    0.208E-03
DAV:   4    -0.158600875524E+04   -0.28101E-06   -0.13526E-06  5978   0.188E-03    0.523E-04
DAV:   5    -0.158600875530E+04   -0.62060E-07   -0.65791E-07  5978   0.145E-03
  44 F= -.15860088E+04 E0= -.15859951E+04  d E =-.838697E-05
       N       E                     dE             d eps       ncg     rms          rms(c)
DAV:   1    -0.158600877479E+04   -0.19553E-04   -0.67003E-03 11662   0.106E-01    0.101E-02
DAV:   2    -0.158600877461E+04    0.18021E-06   -0.54410E-05 11840   0.957E-03    0.758E-03
DAV:   3    -0.158600877303E+04    0.15779E-05   -0.80622E-06  6432   0.499E-03    0.524E-03
DAV:   4    -0.158600877086E+04    0.21660E-05   -0.37269E-06  6128   0.393E-03    0.235E-03
DAV:   5    -0.158600876994E+04    0.92040E-06   -0.19036E-06  6104   0.290E-03
  45 F= -.15860088E+04 E0= -.15859951E+04  d E =-.146468E-04
       N       E                     dE             d eps       ncg     rms          rms(c)
DAV:   1    -0.158600875974E+04    0.11128E-04   -0.18321E-03 11662   0.556E-02    0.631E-03
DAV:   2    -0.158600876239E+04   -0.26572E-05   -0.91965E-06  5973   0.509E-03    0.417E-03
DAV:   3    -0.158600876343E+04   -0.10312E-05   -0.29778E-06  5950   0.315E-03    0.311E-03
DAV:   4    -0.158600876471E+04   -0.12801E-05   -0.16184E-06  5957   0.246E-03    0.141E-03
DAV:   5    -0.158600876555E+04   -0.84883E-06   -0.88084E-07  5957   0.168E-03
  46 F= -.15860088E+04 E0= -.15859951E+04  d E =0.439000E-05
       N       E                     dE             d eps       ncg     rms          rms(c)
DAV:   1    -0.158600877358E+04   -0.88786E-05   -0.12499E-03 11676   0.457E-02    0.406E-03
DAV:   2    -0.158600877376E+04   -0.18030E-06   -0.55497E-06  5957   0.382E-03    0.301E-03
DAV:   3    -0.158600877374E+04    0.24356E-07   -0.15706E-06  5957   0.213E-03    0.222E-03
DAV:   4    -0.158600877362E+04    0.11797E-06   -0.10879E-06  5957   0.184E-03    0.566E-04
DAV:   5    -0.158600877364E+04   -0.20413E-07   -0.46097E-07  5957   0.126E-03
  47 F= -.15860088E+04 E0= -.15859951E+04  d E =-.808818E-05
       N       E                     dE             d eps       ncg     rms          rms(c)
DAV:   1    -0.158600878886E+04   -0.15239E-04   -0.99316E-03 11634   0.128E-01    0.117E-02
DAV:   2    -0.158600879308E+04   -0.42146E-05   -0.81515E-05 14488   0.112E-02    0.901E-03
DAV:   3    -0.158600879184E+04    0.12374E-05   -0.72518E-06  6426   0.493E-03    0.605E-03
DAV:   4    -0.158600879035E+04    0.14899E-05   -0.47910E-06  6128   0.449E-03    0.184E-03
DAV:   5    -0.158600879018E+04    0.16676E-06   -0.16280E-06  6062   0.285E-03
  48 F= -.15860088E+04 E0= -.15859951E+04  d E =-.165387E-04
       N       E                     dE             d eps       ncg     rms          rms(c)
DAV:   1    -0.158600879724E+04   -0.68952E-05   -0.95431E-03 11648   0.126E-01    0.112E-02
DAV:   2    -0.158600880230E+04   -0.50547E-05   -0.79977E-05 14440   0.110E-02    0.871E-03
DAV:   3    -0.158600880152E+04    0.77322E-06   -0.68133E-06  6457   0.482E-03    0.621E-03
DAV:   4    -0.158600880045E+04    0.10704E-05   -0.47362E-06  6104   0.423E-03    0.180E-03
DAV:   5    -0.158600880037E+04    0.80217E-07   -0.16141E-06  6062   0.284E-03
  49 F= -.15860088E+04 E0= -.15859951E+04  d E =-.101928E-04
