       N       E                     dE             d eps       ncg     rms          rms(c)
DAV:   1     0.212142989229E+04    0.21214E+04   -0.28614E+05 11508   0.143E+03
DAV:   2    -0.119335450972E+04   -0.33148E+04   -0.31810E+04 13318   0.288E+02
DAV:   3    -0.161248874552E+04   -0.41913E+03   -0.38509E+03 17872   0.819E+01
DAV:   4    -0.163674082836E+04   -0.24252E+02   -0.22463E+02 16184   0.169E+01
DAV:   5    -0.163778791906E+04   -0.10471E+01   -0.10269E+01 17464   0.420E+00    0.401E+01
DAV:   6    -0.159579302150E+04    0.41995E+02   -0.10169E+02 17512   0.134E+01    0.222E+01
DAV:   7    -0.158811256847E+04    0.76805E+01   -0.86159E+01 17448   0.146E+01    0.173E+01
DAV:   8    -0.157607370440E+04    0.12039E+02   -0.56358E+01 17432   0.122E+01    0.962E+00
DAV:   9    -0.157131674166E+04    0.47570E+01   -0.25076E+01 17096   0.755E+00    0.278E+00
DAV:  10    -0.157125245470E+04    0.64287E-01   -0.43192E+00 15984   0.294E+00    0.147E+00
DAV:  11    -0.157124924841E+04    0.32063E-02   -0.60682E-01 15224   0.107E+00    0.974E-01
DAV:  12    -0.157123592237E+04    0.13326E-01   -0.16050E-01 15944   0.673E-01    0.642E-01
DAV:  13    -0.157121890896E+04    0.17013E-01   -0.61165E-02 16064   0.426E-01    0.303E-01
DAV:  14    -0.157121629082E+04    0.26181E-02   -0.20207E-02 16384   0.192E-01    0.131E-01
DAV:  15    -0.157121604882E+04    0.24200E-03   -0.43179E-03 16040   0.102E-01    0.812E-02
DAV:  16    -0.157121591554E+04    0.13328E-03   -0.12568E-03 15512   0.584E-02    0.518E-02
DAV:  17    -0.157121585854E+04    0.56996E-04   -0.59249E-04 13920   0.378E-02    0.243E-02
DAV:  18    -0.157121585007E+04    0.84677E-05   -0.15825E-04 14200   0.203E-02    0.134E-02
DAV:  19    -0.157121584293E+04    0.71475E-05   -0.43000E-05  9024   0.116E-02
   1 F= -.15712158E+04 E0= -.15712204E+04  d E =-.157122E+04
       N       E                     dE             d eps       ncg     rms          rms(c)
DAV:   1    -0.157803576424E+04   -0.68199E+01   -0.18831E+03 11508   0.657E+01    0.242E+01
DAV:   2    -0.155606378991E+04    0.21972E+02   -0.13778E+02 18208   0.150E+01    0.147E+01
DAV:   3    -0.154957399737E+04    0.64898E+01   -0.72237E+01 19872   0.113E+01    0.104E+01
DAV:   4    -0.154577300146E+04    0.38010E+01   -0.22618E+01 19560   0.698E+00    0.734E+00
DAV:   5    -0.154332364484E+04    0.24494E+01   -0.14667E+01 17512   0.494E+00    0.283E+00
DAV:   6    -0.154308336986E+04    0.24027E+00   -0.33428E+00 17416   0.254E+00    0.169E+00
DAV:   7    -0.154303471875E+04    0.48651E-01   -0.60353E-01 15792   0.118E+00    0.119E+00
DAV:   8    -0.154301898550E+04    0.15733E-01   -0.21253E-01 17504   0.528E-01    0.612E-01
DAV:   9    -0.154302671734E+04   -0.77318E-02   -0.11954E-01 17832   0.351E-01    0.350E-01
DAV:  10    -0.154302688231E+04   -0.16497E-03   -0.24163E-02 16640   0.230E-01    0.215E-01
DAV:  11    -0.154302562208E+04    0.12602E-02   -0.89527E-03 19200   0.133E-01    0.110E-01
DAV:  12    -0.154302561546E+04    0.66207E-05   -0.47954E-03 18456   0.827E-02    0.657E-02
DAV:  13    -0.154302588202E+04   -0.26656E-03   -0.12201E-03 16352   0.431E-02    0.325E-02
DAV:  14    -0.154302594244E+04   -0.60415E-04   -0.41778E-04 17328   0.249E-02    0.209E-02
DAV:  15    -0.154302594134E+04    0.11007E-05   -0.72848E-05 12912   0.131E-02
   2 F= -.15430259E+04 E0= -.15430271E+04  d E =0.281899E+02
       N       E                     dE             d eps       ncg     rms          rms(c)
DAV:   1    -0.159466312883E+04   -0.51637E+02   -0.88777E+02 11508   0.500E+01    0.166E+01
DAV:   2    -0.158285038914E+04    0.11813E+02   -0.35087E+01 16508   0.903E+00    0.787E+00
DAV:   3    -0.158111518784E+04    0.17352E+01   -0.17345E+01 17096   0.608E+00    0.616E+00
DAV:   4    -0.157946266245E+04    0.16525E+01   -0.76730E+00 17600   0.471E+00    0.373E+00
DAV:   5    -0.157875790128E+04    0.70476E+00   -0.42346E+00 16624   0.313E+00    0.125E+00
DAV:   6    -0.157872263358E+04    0.35268E-01   -0.83734E-01 15000   0.138E+00    0.720E-01
DAV:   7    -0.157872844897E+04   -0.58154E-02   -0.13618E-01 15736   0.542E-01    0.547E-01
DAV:   8    -0.157873182272E+04   -0.33738E-02   -0.37515E-02 15888   0.258E-01    0.294E-01
DAV:   9    -0.157874232521E+04   -0.10502E-01   -0.36985E-02 16800   0.220E-01    0.229E-01
DAV:  10    -0.157874153019E+04    0.79502E-03   -0.64617E-03 16768   0.140E-01    0.140E-01
DAV:  11    -0.157874103565E+04    0.49453E-03   -0.37451E-03 17720   0.808E-02    0.553E-02
DAV:  12    -0.157874132210E+04   -0.28645E-03   -0.18286E-03 16904   0.523E-02    0.468E-02
DAV:  13    -0.157874144423E+04   -0.12213E-03   -0.33980E-04 14992   0.254E-02    0.259E-02
DAV:  14    -0.157874143492E+04    0.93144E-05   -0.97913E-05 13360   0.140E-02
   3 F= -.15787414E+04 E0= -.15787316E+04  d E =-.357155E+02
       N       E                     dE             d eps       ncg     rms          rms(c)
DAV:   1    -0.157895163177E+04   -0.21019E+00   -0.22570E+01 11508   0.634E+00    0.841E-01
DAV:   2    -0.157896616932E+04   -0.14538E-01   -0.38830E-01 17008   0.789E-01    0.614E-01
DAV:   3    -0.157895577606E+04    0.10393E-01   -0.83813E-02 18376   0.469E-01    0.443E-01
DAV:   4    -0.157895003721E+04    0.57389E-02   -0.28371E-02 17472   0.254E-01    0.266E-01
DAV:   5    -0.157894791206E+04    0.21251E-02   -0.15308E-02 15416   0.183E-01    0.113E-01
DAV:   6    -0.157894766032E+04    0.25174E-03   -0.43418E-03 16176   0.111E-01    0.650E-02
DAV:   7    -0.157894757176E+04    0.88555E-04   -0.12260E-03 16048   0.564E-02    0.421E-02
DAV:   8    -0.157894753437E+04    0.37396E-04   -0.31071E-04 15664   0.268E-02    0.243E-02
DAV:   9    -0.157894753845E+04   -0.40808E-05   -0.10648E-04 14472   0.167E-02    0.170E-02
DAV:  10    -0.157894753119E+04    0.72590E-05   -0.47781E-05 10480   0.128E-02
   4 F= -.15789475E+04 E0= -.15789392E+04  d E =-.206096E+00
       N       E                     dE             d eps       ncg     rms          rms(c)
DAV:   1    -0.157898707787E+04   -0.39539E-01   -0.39187E+00 11511   0.263E+00    0.438E-01
DAV:   2    -0.157899070855E+04   -0.36307E-02   -0.10435E-01 18072   0.475E-01    0.375E-01
DAV:   3    -0.157898311999E+04    0.75886E-02   -0.39213E-02 18576   0.320E-01    0.206E-01
DAV:   4    -0.157898162184E+04    0.14981E-02   -0.76425E-03 17368   0.128E-01    0.134E-01
DAV:   5    -0.157898107187E+04    0.54997E-03   -0.31818E-03 16024   0.862E-02    0.728E-02
DAV:   6    -0.157898090522E+04    0.16666E-03   -0.13905E-03 15688   0.623E-02    0.396E-02
DAV:   7    -0.157898084273E+04    0.62489E-04   -0.40530E-04 15312   0.343E-02    0.224E-02
DAV:   8    -0.157898084478E+04   -0.20503E-05   -0.98112E-05 13312   0.140E-02
   5 F= -.15789808E+04 E0= -.15789713E+04  d E =-.333136E-01
       N       E                     dE             d eps       ncg     rms          rms(c)
DAV:   1    -0.157899308426E+04   -0.12242E-01   -0.88991E-01 11538   0.131E+00    0.239E-01
DAV:   2    -0.157899234484E+04    0.73942E-03   -0.14337E-02 16832   0.167E-01    0.161E-01
DAV:   3    -0.157899161242E+04    0.73241E-03   -0.57229E-03 18720   0.124E-01    0.118E-01
DAV:   4    -0.157899107556E+04    0.53687E-03   -0.19940E-03 16176   0.677E-02    0.521E-02
DAV:   5    -0.157899105224E+04    0.23318E-04   -0.90450E-04 15536   0.476E-02    0.261E-02
DAV:   6    -0.157899103896E+04    0.13279E-04   -0.23801E-04 15480   0.274E-02    0.157E-02
DAV:   7    -0.157899103440E+04    0.45567E-05   -0.47347E-05 10248   0.121E-02
   6 F= -.15789910E+04 E0= -.15789822E+04  d E =-.101896E-01
       N       E                     dE             d eps       ncg     rms          rms(c)
DAV:   1    -0.157900063300E+04   -0.95940E-02   -0.55096E-01 11514   0.100E+00    0.197E-01
DAV:   2    -0.157900081986E+04   -0.18685E-03   -0.16168E-02 18048   0.197E-01    0.167E-01
DAV:   3    -0.157899925561E+04    0.15642E-02   -0.74647E-03 18608   0.141E-01    0.898E-02
DAV:   4    -0.157899892239E+04    0.33322E-03   -0.14896E-03 16624   0.560E-02    0.561E-02
DAV:   5    -0.157899877813E+04    0.14426E-03   -0.64321E-04 15816   0.399E-02    0.288E-02
DAV:   6    -0.157899873220E+04    0.45928E-04   -0.24580E-04 15664   0.267E-02    0.159E-02
DAV:   7    -0.157899872098E+04    0.11227E-04   -0.63416E-05 12816   0.140E-02    0.947E-03
DAV:   8    -0.157899872333E+04   -0.23554E-05   -0.15285E-05  6904   0.645E-03
   7 F= -.15789987E+04 E0= -.15789894E+04  d E =-.768893E-02
       N       E                     dE             d eps       ncg     rms          rms(c)
DAV:   1    -0.157900242529E+04   -0.37043E-02   -0.39462E-01 11529   0.822E-01    0.958E-02
DAV:   2    -0.157900328761E+04   -0.86231E-03   -0.67077E-03 17864   0.126E-01    0.114E-01
DAV:   3    -0.157900251162E+04    0.77598E-03   -0.26348E-03 18405   0.853E-02    0.535E-02
DAV:   4    -0.157900247924E+04    0.32385E-04   -0.40637E-04 16760   0.289E-02    0.358E-02
DAV:   5    -0.157900246282E+04    0.16414E-04   -0.23467E-04 15184   0.239E-02    0.138E-02
DAV:   6    -0.157900245927E+04    0.35568E-05   -0.65804E-05 12728   0.150E-02
   8 F= -.15790025E+04 E0= -.15789932E+04  d E =-.373593E-02
       N       E                     dE             d eps       ncg     rms          rms(c)
DAV:   1    -0.157900431845E+04   -0.18556E-02   -0.14595E-01 11546   0.511E-01    0.867E-02
DAV:   2    -0.157900439140E+04   -0.72947E-04   -0.32524E-03 17896   0.892E-02    0.775E-02
DAV:   3    -0.157900404847E+04    0.34293E-03   -0.14875E-03 18592   0.634E-02    0.413E-02
DAV:   4    -0.157900397394E+04    0.74528E-04   -0.28492E-04 16320   0.242E-02    0.262E-02
DAV:   5    -0.157900393190E+04    0.42037E-04   -0.13166E-04 15048   0.185E-02    0.131E-02
DAV:   6    -0.157900391727E+04    0.14634E-04   -0.43575E-05 10056   0.126E-02    0.682E-03
DAV:   7    -0.157900391532E+04    0.19509E-05   -0.12526E-05  6776   0.713E-03
   9 F= -.15790039E+04 E0= -.15789944E+04  d E =-.145605E-02
       N       E                     dE             d eps       ncg     rms          rms(c)
DAV:   1    -0.157900504195E+04   -0.11247E-02   -0.65168E-02 11538   0.343E-01    0.533E-02
DAV:   2    -0.157900508392E+04   -0.41971E-04   -0.89312E-04 16944   0.438E-02    0.415E-02
DAV:   3    -0.157900502333E+04    0.60589E-04   -0.35410E-04 18541   0.314E-02    0.272E-02
DAV:   4    -0.157900501752E+04    0.58142E-05   -0.84329E-05 13504   0.140E-02    0.120E-02
DAV:   5    -0.157900502713E+04   -0.96158E-05   -0.30415E-05  8000   0.103E-02
  10 F= -.15790050E+04 E0= -.15789957E+04  d E =-.111181E-02
       N       E                     dE             d eps       ncg     rms          rms(c)
DAV:   1    -0.157900602197E+04   -0.10045E-02   -0.90531E-02 11538   0.392E-01    0.469E-02
DAV:   2    -0.157900613367E+04   -0.11170E-03   -0.13385E-03 17840   0.554E-02    0.490E-02
DAV:   3    -0.157900600192E+04    0.13174E-03   -0.49433E-04 18368   0.370E-02    0.261E-02
DAV:   4    -0.157900598109E+04    0.20836E-04   -0.76297E-05 12720   0.129E-02    0.168E-02
DAV:   5    -0.157900596645E+04    0.14642E-04   -0.37444E-05  9096   0.110E-02    0.695E-03
DAV:   6    -0.157900596270E+04    0.37498E-05   -0.11652E-05  7088   0.806E-03
  11 F= -.15790060E+04 E0= -.15789965E+04  d E =-.935564E-03
       N       E                     dE             d eps       ncg     rms          rms(c)
DAV:   1    -0.157900665810E+04   -0.69165E-03   -0.81184E-02 11508   0.372E-01    0.391E-02
DAV:   2    -0.157900674784E+04   -0.89742E-04   -0.86218E-04 17096   0.415E-02    0.368E-02
DAV:   3    -0.157900669643E+04    0.51411E-04   -0.22911E-04 17052   0.256E-02    0.235E-02
DAV:   4    -0.157900669596E+04    0.46496E-06   -0.57974E-05 11552   0.115E-02    0.959E-03
DAV:   5    -0.157900669906E+04   -0.30984E-05   -0.18303E-05  7329   0.852E-03
  12 F= -.15790067E+04 E0= -.15789973E+04  d E =-.736365E-03
       N       E                     dE             d eps       ncg     rms          rms(c)
DAV:   1    -0.157900700711E+04   -0.31115E-03   -0.11036E-02 11544   0.144E-01    0.284E-02
DAV:   2    -0.157900696863E+04    0.38483E-04   -0.20849E-04 17000   0.211E-02    0.184E-02
DAV:   3    -0.157900695149E+04    0.17139E-04   -0.75850E-05 12797   0.156E-02    0.128E-02
DAV:   4    -0.157900693586E+04    0.15637E-04   -0.22317E-05  7488   0.891E-03    0.705E-03
DAV:   5    -0.157900692571E+04    0.10142E-04   -0.11183E-05  6288   0.656E-03    0.325E-03
DAV:   6    -0.157900692322E+04    0.24961E-05   -0.39171E-06  6208   0.446E-03
  13 F= -.15790069E+04 E0= -.15789975E+04  d E =-.224156E-03
       N       E                     dE             d eps       ncg     rms          rms(c)
DAV:   1    -0.157900736335E+04   -0.43764E-03   -0.40717E-02 11532   0.262E-01    0.263E-02
DAV:   2    -0.157900740141E+04   -0.38054E-04   -0.38515E-04 16792   0.266E-02    0.233E-02
DAV:   3    -0.157900738529E+04    0.16122E-04   -0.69776E-05 12813   0.149E-02    0.165E-02
DAV:   4    -0.157900738633E+04   -0.10452E-05   -0.29643E-05  7560   0.871E-03    0.556E-03
DAV:   5    -0.157900738811E+04   -0.17772E-05   -0.89031E-06  6552   0.653E-03
  14 F= -.15790074E+04 E0= -.15789979E+04  d E =-.464892E-03
       N       E                     dE             d eps       ncg     rms          rms(c)
DAV:   1    -0.157900782028E+04   -0.43395E-03   -0.49706E-02 11520   0.290E-01    0.291E-02
DAV:   2    -0.157900784764E+04   -0.27364E-04   -0.49652E-04 16872   0.306E-02    0.258E-02
DAV:   3    -0.157900782385E+04    0.23792E-04   -0.10492E-04 14933   0.178E-02    0.178E-02
DAV:   4    -0.157900781172E+04    0.12130E-04   -0.28247E-05  7768   0.850E-03    0.935E-03
DAV:   5    -0.157900780535E+04    0.63705E-05   -0.13189E-05  6632   0.744E-03
  15 F= -.15790078E+04 E0= -.15789983E+04  d E =-.417241E-03
       N       E                     dE             d eps       ncg     rms          rms(c)
DAV:   1    -0.157900794695E+04   -0.13523E-03   -0.69949E-03 11544   0.112E-01    0.168E-02
DAV:   2    -0.157900795547E+04   -0.85230E-05   -0.73601E-05 13312   0.117E-02    0.977E-03
DAV:   3    -0.157900795908E+04   -0.36079E-05   -0.15418E-05  7293   0.729E-03    0.729E-03
DAV:   4    -0.157900796254E+04   -0.34591E-05   -0.60874E-06  6352   0.558E-03    0.386E-03
DAV:   5    -0.157900796637E+04   -0.38358E-05   -0.35775E-06  6135   0.374E-03
  16 F= -.15790080E+04 E0= -.15789985E+04  d E =-.161024E-03
       N       E                     dE             d eps       ncg     rms          rms(c)
DAV:   1    -0.157900823239E+04   -0.26985E-03   -0.21450E-02 11529   0.191E-01    0.203E-02
DAV:   2    -0.157900823422E+04   -0.18252E-05   -0.20696E-04 16568   0.187E-02    0.157E-02
DAV:   3    -0.157900822683E+04    0.73901E-05   -0.24677E-05  8322   0.997E-03    0.120E-02
DAV:   4    -0.157900821888E+04    0.79455E-05   -0.14388E-05  6408   0.672E-03    0.599E-03
DAV:   5    -0.157900821465E+04    0.42335E-05   -0.72849E-06  6141   0.557E-03
  17 F= -.15790082E+04 E0= -.15789987E+04  d E =-.248272E-03
       N       E                     dE             d eps       ncg     rms          rms(c)
DAV:   1    -0.157900846195E+04   -0.24307E-03   -0.26737E-02 11520   0.212E-01    0.197E-02
DAV:   2    -0.157900848193E+04   -0.19982E-04   -0.22999E-04 16656   0.193E-02    0.157E-02
DAV:   3    -0.157900847905E+04    0.28823E-05   -0.17580E-05  7765   0.846E-03    0.125E-02
DAV:   4    -0.157900847968E+04   -0.62544E-06   -0.16615E-05  6392   0.677E-03    0.297E-03
DAV:   5    -0.157900848045E+04   -0.77700E-06   -0.45904E-06  6144   0.497E-03
  18 F= -.15790085E+04 E0= -.15789990E+04  d E =-.265806E-03
       N       E                     dE             d eps       ncg     rms          rms(c)
DAV:   1    -0.157900866603E+04   -0.18635E-03   -0.15398E-02 11526   0.162E-01    0.184E-02
DAV:   2    -0.157900865966E+04    0.63724E-05   -0.15447E-04 16256   0.162E-02    0.131E-02
DAV:   3    -0.157900865367E+04    0.59867E-05   -0.19825E-05  8010   0.892E-03    0.101E-02
DAV:   4    -0.157900864640E+04    0.72637E-05   -0.10263E-05  6352   0.623E-03    0.554E-03
DAV:   5    -0.157900864119E+04    0.52156E-05   -0.60354E-06  6117   0.471E-03
  19 F= -.15790086E+04 E0= -.15789991E+04  d E =-.160737E-03
       N       E                     dE             d eps       ncg     rms          rms(c)
DAV:   1    -0.157900874698E+04   -0.10058E-03   -0.57263E-03 11532   0.997E-02    0.125E-02
DAV:   2    -0.157900875443E+04   -0.74440E-05   -0.46301E-05 10480   0.950E-03    0.802E-03
DAV:   3    -0.157900875732E+04   -0.28910E-05   -0.10551E-05  6578   0.604E-03    0.580E-03
DAV:   4    -0.157900876047E+04   -0.31528E-05   -0.48074E-06  6103   0.461E-03    0.254E-03
DAV:   5    -0.157900876269E+04   -0.22167E-05   -0.26401E-06  5971   0.299E-03
  20 F= -.15790088E+04 E0= -.15789993E+04  d E =-.121499E-03
       N       E                     dE             d eps       ncg     rms          rms(c)
DAV:   1    -0.157900892963E+04   -0.16916E-03   -0.16119E-02 11520   0.165E-01    0.160E-02
DAV:   2    -0.157900893385E+04   -0.42140E-05   -0.14464E-04 16240   0.147E-02    0.121E-02
DAV:   3    -0.157900893091E+04    0.29334E-05   -0.98675E-06  6994   0.616E-03    0.933E-03
DAV:   4    -0.157900892591E+04    0.50042E-05   -0.78294E-06  6184   0.549E-03    0.350E-03
DAV:   5    -0.157900892448E+04    0.14331E-05   -0.33927E-06  6018   0.396E-03
  21 F= -.15790089E+04 E0= -.15789994E+04  d E =-.161789E-03
       N       E                     dE             d eps       ncg     rms          rms(c)
DAV:   1    -0.157900904618E+04   -0.12027E-03   -0.11340E-02 11520   0.139E-01    0.135E-02
DAV:   2    -0.157900905676E+04   -0.10582E-04   -0.97324E-05 15064   0.123E-02    0.981E-03
DAV:   3    -0.157900905819E+04   -0.14259E-05   -0.83859E-06  6645   0.532E-03    0.673E-03
DAV:   4    -0.157900906032E+04   -0.21371E-05   -0.47517E-06  6144   0.482E-03    0.263E-03
DAV:   5    -0.157900906157E+04   -0.12482E-05   -0.21343E-06  5979   0.317E-03
  22 F= -.15790091E+04 E0= -.15789996E+04  d E =-.137093E-03
       N       E                     dE             d eps       ncg     rms          rms(c)
DAV:   1    -0.157900914979E+04   -0.89463E-04   -0.48374E-03 11526   0.911E-02    0.109E-02
DAV:   2    -0.157900914221E+04    0.75745E-05   -0.33744E-05  8688   0.883E-03    0.689E-03
DAV:   3    -0.157900913976E+04    0.24533E-05   -0.10632E-05  6386   0.592E-03    0.507E-03
DAV:   4    -0.157900913616E+04    0.35969E-05   -0.51664E-06  5931   0.447E-03    0.250E-03
DAV:   5    -0.157900913438E+04    0.17781E-05   -0.31264E-06  5865   0.307E-03
  23 F= -.15790091E+04 E0= -.15789996E+04  d E =-.728120E-04
       N       E                     dE             d eps       ncg     rms          rms(c)
DAV:   1    -0.157900923095E+04   -0.94792E-04   -0.86338E-03 11520   0.121E-01    0.122E-02
DAV:   2    -0.157900923940E+04   -0.84432E-05   -0.80273E-05 14400   0.109E-02    0.896E-03
DAV:   3    -0.157900924055E+04   -0.11497E-05   -0.75625E-06  6306   0.485E-03    0.584E-03
DAV:   4    -0.157900924230E+04   -0.17574E-05   -0.40319E-06  6078   0.432E-03    0.252E-03
DAV:   5    -0.157900924307E+04   -0.77011E-06   -0.18086E-06  5862   0.297E-03
  24 F= -.15790092E+04 E0= -.15789998E+04  d E =-.108691E-03
       N       E                     dE             d eps       ncg     rms          rms(c)
DAV:   1    -0.157900932433E+04   -0.82027E-04   -0.58620E-03 11520   0.995E-02    0.980E-03
DAV:   2    -0.157900932224E+04    0.20858E-05   -0.42080E-05 10000   0.897E-03    0.706E-03
DAV:   3    -0.157900932088E+04    0.13696E-05   -0.90104E-06  6240   0.519E-03    0.515E-03
DAV:   4    -0.157900931798E+04    0.28971E-05   -0.44468E-06  5874   0.394E-03    0.196E-03
DAV:   5    -0.157900931716E+04    0.82130E-06   -0.23929E-06  5865   0.278E-03
  25 F= -.15790093E+04 E0= -.15789998E+04  d E =-.740835E-04
       N       E                     dE             d eps       ncg     rms          rms(c)
DAV:   1    -0.157900939842E+04   -0.80439E-04   -0.83253E-03 11514   0.119E-01    0.117E-02
DAV:   2    -0.157900940668E+04   -0.82603E-05   -0.74686E-05 13880   0.106E-02    0.859E-03
DAV:   3    -0.157900940810E+04   -0.14233E-05   -0.78088E-06  6183   0.473E-03    0.517E-03
DAV:   4    -0.157900941011E+04   -0.20041E-05   -0.36695E-06  6021   0.408E-03    0.246E-03
DAV:   5    -0.157900941071E+04   -0.60721E-06   -0.16812E-06  5900   0.292E-03
  26 F= -.15790094E+04 E0= -.15789999E+04  d E =-.935556E-04
       N       E                     dE             d eps       ncg     rms          rms(c)
DAV:   1    -0.157900945719E+04   -0.47085E-04   -0.19683E-03 11526   0.582E-02    0.727E-03
DAV:   2    -0.157900945177E+04    0.54203E-05   -0.13508E-05  5913   0.576E-03    0.447E-03
DAV:   3    -0.157900945002E+04    0.17509E-05   -0.50472E-06  5838   0.400E-03    0.328E-03
DAV:   4    -0.157900944772E+04    0.22995E-05   -0.25951E-06  5841   0.304E-03    0.160E-03
DAV:   5    -0.157900944653E+04    0.11916E-05   -0.15538E-06  5841   0.211E-03
  27 F= -.15790094E+04 E0= -.15790000E+04  d E =-.358150E-04
       N       E                     dE             d eps       ncg     rms          rms(c)
DAV:   1    -0.157900951201E+04   -0.64289E-04   -0.64156E-03 11514   0.104E-01    0.101E-02
DAV:   2    -0.157900951741E+04   -0.53997E-05   -0.52353E-05 11384   0.924E-03    0.758E-03
DAV:   3    -0.157900951851E+04   -0.10999E-05   -0.85739E-06  6301   0.500E-03    0.448E-03
DAV:   4    -0.157900951975E+04   -0.12396E-05   -0.37356E-06  5997   0.394E-03    0.168E-03
DAV:   5    -0.157900952001E+04   -0.26486E-06   -0.16815E-06  5878   0.259E-03
  28 F= -.15790095E+04 E0= -.15790000E+04  d E =-.734848E-04
       N       E                     dE             d eps       ncg     rms          rms(c)
DAV:   1    -0.157900957687E+04   -0.57125E-04   -0.45450E-03 11514   0.876E-02    0.894E-03
DAV:   2    -0.157900957340E+04    0.34731E-05   -0.27526E-05  7928   0.798E-03    0.611E-03
DAV:   3    -0.157900957189E+04    0.15144E-05   -0.97417E-06  6133   0.490E-03    0.411E-03
DAV:   4    -0.157900956975E+04    0.21351E-05   -0.51903E-06  5841   0.398E-03    0.187E-03
DAV:   5    -0.157900956908E+04    0.67394E-06   -0.30159E-06  5841   0.289E-03
  29 F= -.15790096E+04 E0= -.15790001E+04  d E =-.490641E-04
       N       E                     dE             d eps       ncg     rms          rms(c)
DAV:   1    -0.157900960432E+04   -0.34574E-04   -0.25635E-03 11520   0.661E-02    0.772E-03
DAV:   2    -0.157900960850E+04   -0.41797E-05   -0.18071E-05  6275   0.654E-03    0.505E-03
DAV:   3    -0.157900961059E+04   -0.20894E-05   -0.72345E-06  5889   0.438E-03    0.351E-03
DAV:   4    -0.157900961244E+04   -0.18455E-05   -0.39090E-06  5817   0.345E-03    0.174E-03
DAV:   5    -0.157900961366E+04   -0.12230E-05   -0.23210E-06  5817   0.256E-03
  30 F= -.15790096E+04 E0= -.15790001E+04  d E =-.445855E-04
       N       E                     dE             d eps       ncg     rms          rms(c)
DAV:   1    -0.157900965515E+04   -0.42713E-04   -0.27337E-03 11514   0.678E-02    0.718E-03
DAV:   2    -0.157900965258E+04    0.25691E-05   -0.18028E-05  7686   0.651E-03    0.494E-03
DAV:   3    -0.157900965145E+04    0.11333E-05   -0.69063E-06  6042   0.419E-03    0.330E-03
DAV:   4    -0.157900964988E+04    0.15673E-05   -0.37957E-06  5817   0.340E-03    0.146E-03
DAV:   5    -0.157900964942E+04    0.46608E-06   -0.22346E-06  5814   0.251E-03
  31 F= -.15790096E+04 E0= -.15790002E+04  d E =-.357539E-04
       N       E                     dE             d eps       ncg     rms          rms(c)
DAV:   1    -0.157900969124E+04   -0.41362E-04   -0.42117E-03 11514   0.840E-02    0.805E-03
DAV:   2    -0.157900969454E+04   -0.32964E-05   -0.27990E-05  8367   0.771E-03    0.587E-03
DAV:   3    -0.157900969593E+04   -0.13932E-05   -0.90155E-06  6083   0.453E-03    0.336E-03
DAV:   4    -0.157900969711E+04   -0.11771E-05   -0.48942E-06  5850   0.384E-03    0.118E-03
DAV:   5    -0.157900969739E+04   -0.28160E-06   -0.26134E-06  5817   0.273E-03
  32 F= -.15790097E+04 E0= -.15790002E+04  d E =-.479767E-04
       N       E                     dE             d eps       ncg     rms          rms(c)
DAV:   1    -0.157900973057E+04   -0.33463E-04   -0.21687E-03 11514   0.607E-02    0.697E-03
DAV:   2    -0.157900972660E+04    0.39739E-05   -0.15581E-05  6073   0.614E-03    0.450E-03
DAV:   3    -0.157900972511E+04    0.14850E-05   -0.61024E-06  5802   0.413E-03    0.309E-03
DAV:   4    -0.157900972343E+04    0.16803E-05   -0.32254E-06  5808   0.322E-03    0.165E-03
DAV:   5    -0.157900972253E+04    0.90359E-06   -0.19639E-06  5808   0.241E-03
  33 F= -.15790097E+04 E0= -.15790002E+04  d E =-.251385E-04
       N       E                     dE             d eps       ncg     rms          rms(c)
DAV:   1    -0.157900974302E+04   -0.19588E-04   -0.12751E-03 11514   0.465E-02    0.530E-03
DAV:   2    -0.157900974581E+04   -0.27916E-05   -0.91441E-06  6081   0.466E-03    0.356E-03
DAV:   3    -0.157900974707E+04   -0.12547E-05   -0.37220E-06  5865   0.317E-03    0.254E-03
DAV:   4    -0.157900974843E+04   -0.13562E-05   -0.20821E-06  5808   0.250E-03    0.114E-03
DAV:   5    -0.157900974917E+04   -0.74454E-06   -0.12279E-06  5808   0.186E-03
  34 F= -.15790097E+04 E0= -.15790003E+04  d E =-.266387E-04
       N       E                     dE             d eps       ncg     rms          rms(c)
DAV:   1    -0.157900978239E+04   -0.33967E-04   -0.31162E-03 11514   0.722E-02    0.687E-03
DAV:   2    -0.157900978201E+04    0.38004E-06   -0.18478E-05  7879   0.658E-03    0.499E-03
DAV:   3    -0.157900978146E+04    0.54744E-06   -0.69094E-06  6102   0.397E-03    0.289E-03
DAV:   4    -0.157900978076E+04    0.70895E-06   -0.38655E-06  5841   0.340E-03    0.938E-04
DAV:   5    -0.157900978086E+04   -0.10873E-06   -0.21121E-06  5841   0.245E-03
  35 F= -.15790098E+04 E0= -.15790003E+04  d E =-.316947E-04
       N       E                     dE             d eps       ncg     rms          rms(c)
DAV:   1    -0.157900981966E+04   -0.38907E-04   -0.72801E-03 11514   0.111E-01    0.109E-02
DAV:   2    -0.157900982708E+04   -0.74143E-05   -0.65396E-05 12360   0.101E-02    0.807E-03
DAV:   3    -0.157900982852E+04   -0.14471E-05   -0.84601E-06  6224   0.497E-03    0.488E-03
DAV:   4    -0.157900983046E+04   -0.19364E-05   -0.36673E-06  5997   0.399E-03    0.236E-03
DAV:   5    -0.157900983110E+04   -0.63599E-06   -0.18170E-06  5856   0.289E-03
  36 F= -.15790098E+04 E0= -.15790004E+04  d E =-.502320E-04
       N       E                     dE             d eps       ncg     rms          rms(c)
DAV:   1    -0.157900983021E+04    0.25523E-06   -0.35003E-04 11514   0.258E-02    0.513E-03
DAV:   2    -0.157900982476E+04    0.54492E-05   -0.30153E-06  5781   0.301E-03    0.266E-03
DAV:   3    -0.157900982263E+04    0.21228E-05   -0.11809E-06  5775   0.231E-03    0.191E-03
DAV:   4    -0.157900982107E+04    0.15607E-05   -0.53274E-07  5781   0.168E-03    0.921E-04
DAV:   5    -0.157900981994E+04    0.11301E-05   -0.28454E-07  5781   0.975E-04
  37 F= -.15790098E+04 E0= -.15790003E+04  d E =0.111541E-04
       N       E                     dE             d eps       ncg     rms          rms(c)
DAV:   1    -0.157900984706E+04   -0.25987E-04   -0.29881E-03 11514   0.708E-02    0.634E-03
DAV:   2    -0.157900984747E+04   -0.41374E-06   -0.14813E-05  5862   0.600E-03    0.465E-03
DAV:   3    -0.157900984736E+04    0.11049E-06   -0.51785E-06  5790   0.337E-03    0.246E-03
DAV:   4    -0.157900984726E+04    0.10477E-06   -0.27795E-06  5790   0.293E-03    0.754E-04
DAV:   5    -0.157900984736E+04   -0.10633E-06   -0.13980E-06  5790   0.196E-03
  38 F= -.15790098E+04 E0= -.15790004E+04  d E =-.274217E-04
       N       E                     dE             d eps       ncg     rms          rms(c)
DAV:   1    -0.157900993284E+04   -0.85585E-04   -0.75416E-02 11508   0.356E-01    0.322E-02
DAV:   2    -0.157900997185E+04   -0.39003E-04   -0.63012E-04 17104   0.306E-02    0.247E-02
DAV:   3    -0.157900995981E+04    0.12037E-04   -0.52955E-05 11437   0.111E-02    0.115E-02
DAV:   4    -0.157900995699E+04    0.28141E-05   -0.22369E-05  8248   0.101E-02    0.586E-03
DAV:   5    -0.157900995479E+04    0.22085E-05   -0.68163E-06  6733   0.636E-03
  39 F= -.15790100E+04 E0= -.15790005E+04  d E =-.107422E-03
       N       E                     dE             d eps       ncg     rms          rms(c)
DAV:   1    -0.157900998272E+04   -0.25726E-04   -0.31448E-02 11514   0.230E-01    0.204E-02
DAV:   2    -0.157901000040E+04   -0.17683E-04   -0.26886E-04 17008   0.197E-02    0.157E-02
DAV:   3    -0.157900999589E+04    0.45102E-05   -0.16083E-05  7288   0.686E-03    0.861E-03
DAV:   4    -0.157900999432E+04    0.15759E-05   -0.10630E-05  6928   0.712E-03    0.365E-03
DAV:   5    -0.157900999354E+04    0.77773E-06   -0.35584E-06  6256   0.488E-03
  40 F= -.15790100E+04 E0= -.15790005E+04  d E =-.387537E-04
       N       E                     dE             d eps       ncg     rms          rms(c)
DAV:   1    -0.157900999480E+04   -0.48036E-06   -0.50211E-02 11508   0.290E-01    0.260E-02
DAV:   2    -0.157901002154E+04   -0.26742E-04   -0.42240E-04 17080   0.250E-02    0.200E-02
DAV:   3    -0.157901001363E+04    0.79146E-05   -0.27149E-05  8117   0.865E-03    0.103E-02
DAV:   4    -0.157901001164E+04    0.19807E-05   -0.15907E-05  7592   0.879E-03    0.462E-03
DAV:   5    -0.157901001031E+04    0.13312E-05   -0.52963E-06  6381   0.601E-03
  41 F= -.15790100E+04 E0= -.15790005E+04  d E =-.167736E-04
