       N       E                     dE             d eps       ncg     rms          rms(c)
DAV:   1     0.243737927996E+04    0.24374E+04   -0.30239E+05 12064   0.144E+03
DAV:   2    -0.119804652339E+04   -0.36354E+04   -0.34822E+04 13884   0.321E+02
DAV:   3    -0.166683824012E+04   -0.46879E+03   -0.43962E+03 18472   0.822E+01
DAV:   4    -0.169188546346E+04   -0.25047E+02   -0.23904E+02 16968   0.180E+01
DAV:   5    -0.169291816062E+04   -0.10327E+01   -0.10160E+01 18704   0.394E+00    0.435E+01
DAV:   6    -0.164288960379E+04    0.50029E+02   -0.13257E+02 18208   0.155E+01    0.234E+01
DAV:   7    -0.163132320505E+04    0.11566E+02   -0.90514E+01 18728   0.157E+01    0.166E+01
DAV:   8    -0.161886683069E+04    0.12456E+02   -0.55622E+01 18032   0.124E+01    0.711E+00
DAV:   9    -0.161660321899E+04    0.22636E+01   -0.19739E+01 17480   0.700E+00    0.226E+00
DAV:  10    -0.161662273020E+04   -0.19511E-01   -0.28594E+00 15656   0.252E+00    0.155E+00
DAV:  11    -0.161659823828E+04    0.24492E-01   -0.44605E-01 16432   0.935E-01    0.994E-01
DAV:  12    -0.161657363129E+04    0.24607E-01   -0.17041E-01 14704   0.674E-01    0.502E-01
DAV:  13    -0.161656514632E+04    0.84850E-02   -0.34606E-02 14840   0.328E-01    0.230E-01
DAV:  14    -0.161656363015E+04    0.15162E-02   -0.11045E-02 14752   0.142E-01    0.843E-02
DAV:  15    -0.161656350647E+04    0.12369E-03   -0.19992E-03 15552   0.767E-02    0.489E-02
DAV:  16    -0.161656346986E+04    0.36607E-04   -0.58888E-04 15320   0.417E-02    0.250E-02
DAV:  17    -0.161656346500E+04    0.48635E-05   -0.15672E-04 15024   0.205E-02    0.109E-02
DAV:  18    -0.161656346255E+04    0.24481E-05   -0.38818E-05  9592   0.112E-02
   1 F= -.16165635E+04 E0= -.16165560E+04  d E =-.161656E+04
       N       E                     dE             d eps       ncg     rms          rms(c)
DAV:   1    -0.161810935470E+04   -0.15459E+01   -0.62945E+02 12040   0.365E+01    0.121E+01
DAV:   2    -0.161162826734E+04    0.64811E+01   -0.23886E+01 16872   0.675E+00    0.598E+00
DAV:   3    -0.161037236778E+04    0.12559E+01   -0.10888E+01 18496   0.509E+00    0.441E+00
DAV:   4    -0.160938009915E+04    0.99227E+00   -0.40965E+00 18488   0.357E+00    0.249E+00
DAV:   5    -0.160906948231E+04    0.31062E+00   -0.22829E+00 16280   0.229E+00    0.799E-01
DAV:   6    -0.160906248374E+04    0.69986E-02   -0.33663E-01 15368   0.945E-01    0.537E-01
DAV:   7    -0.160906103553E+04    0.14482E-02   -0.66127E-02 16104   0.384E-01    0.369E-01
DAV:   8    -0.160906172555E+04   -0.69002E-03   -0.29105E-02 16416   0.215E-01    0.175E-01
DAV:   9    -0.160906265230E+04   -0.92675E-03   -0.78230E-03 14624   0.124E-01    0.113E-01
DAV:  10    -0.160906220192E+04    0.45038E-03   -0.21886E-03 14888   0.756E-02    0.623E-02
DAV:  11    -0.160906209809E+04    0.10383E-03   -0.12533E-03 17624   0.502E-02    0.326E-02
DAV:  12    -0.160906215754E+04   -0.59456E-04   -0.55158E-04 16480   0.306E-02    0.296E-02
DAV:  13    -0.160906214824E+04    0.92971E-05   -0.11227E-04 14752   0.157E-02    0.118E-02
DAV:  14    -0.160906215089E+04   -0.26475E-05   -0.34570E-05  8568   0.867E-03
   2 F= -.16090622E+04 E0= -.16090565E+04  d E =0.750131E+01
       N       E                     dE             d eps       ncg     rms          rms(c)
DAV:   1    -0.162350494733E+04   -0.14443E+02   -0.24608E+02 12040   0.255E+01    0.875E+00
DAV:   2    -0.161986824393E+04    0.36367E+01   -0.69485E+00 14132   0.406E+00    0.408E+00
DAV:   3    -0.161921962992E+04    0.64861E+00   -0.29605E+00 15416   0.281E+00    0.255E+00
DAV:   4    -0.161883836623E+04    0.38126E+00   -0.14148E+00 16448   0.239E+00    0.117E+00
DAV:   5    -0.161876995096E+04    0.68415E-01   -0.62587E-01 15392   0.131E+00    0.375E-01
DAV:   6    -0.161877197621E+04   -0.20252E-02   -0.91001E-02 14584   0.504E-01    0.259E-01
DAV:   7    -0.161877317553E+04   -0.11993E-02   -0.16375E-02 16104   0.190E-01    0.170E-01
DAV:   8    -0.161877479088E+04   -0.16154E-02   -0.69534E-03 15032   0.114E-01    0.824E-02
DAV:   9    -0.161877527239E+04   -0.48151E-03   -0.16884E-03 13976   0.606E-02    0.473E-02
DAV:  10    -0.161877536057E+04   -0.88176E-04   -0.73601E-04 16112   0.393E-02    0.260E-02
DAV:  11    -0.161877546913E+04   -0.10856E-03   -0.27389E-04 15544   0.258E-02    0.237E-02
DAV:  12    -0.161877548998E+04   -0.20853E-04   -0.68288E-05 13008   0.125E-02    0.120E-02
DAV:  13    -0.161877547696E+04    0.13024E-04   -0.22451E-05  7496   0.688E-03    0.342E-03
DAV:  14    -0.161877547200E+04    0.49598E-05   -0.99970E-06  7048   0.511E-03
   3 F= -.16187755E+04 E0= -.16187729E+04  d E =-.971332E+01
       N       E                     dE             d eps       ncg     rms          rms(c)
DAV:   1    -0.161882468562E+04   -0.49209E-01   -0.86237E+00 12040   0.374E+00    0.492E-01
DAV:   2    -0.161883358689E+04   -0.89013E-02   -0.16882E-01 17672   0.634E-01    0.378E-01
DAV:   3    -0.161882639208E+04    0.71948E-02   -0.45114E-02 18344   0.369E-01    0.241E-01
DAV:   4    -0.161882515247E+04    0.12396E-02   -0.77188E-03 17896   0.136E-01    0.145E-01
DAV:   5    -0.161882459352E+04    0.55895E-03   -0.40403E-03 16416   0.977E-02    0.471E-02
DAV:   6    -0.161882453024E+04    0.63286E-04   -0.95044E-04 16136   0.550E-02    0.292E-02
DAV:   7    -0.161882450800E+04    0.22234E-04   -0.20521E-04 16016   0.240E-02    0.175E-02
DAV:   8    -0.161882450523E+04    0.27696E-05   -0.54664E-05 11232   0.107E-02
   4 F= -.16188245E+04 E0= -.16188228E+04  d E =-.490332E-01
       N       E                     dE             d eps       ncg     rms          rms(c)
DAV:   1    -0.161883208654E+04   -0.75785E-02   -0.11527E+00 12088   0.137E+00    0.160E-01
DAV:   2    -0.161883347462E+04   -0.13881E-02   -0.18409E-02 17112   0.242E-01    0.142E-01
DAV:   3    -0.161883220792E+04    0.12667E-02   -0.57765E-03 17890   0.137E-01    0.839E-02
DAV:   4    -0.161883207041E+04    0.13752E-03   -0.99597E-04 17216   0.472E-02    0.439E-02
DAV:   5    -0.161883204162E+04    0.28786E-04   -0.46616E-04 15848   0.351E-02    0.155E-02
DAV:   6    -0.161883203257E+04    0.90539E-05   -0.10871E-04 14728   0.191E-02    0.947E-03
DAV:   7    -0.161883202791E+04    0.46607E-05   -0.18501E-05  7768   0.749E-03
   5 F= -.16188320E+04 E0= -.16188305E+04  d E =-.752267E-02
       N       E                     dE             d eps       ncg     rms          rms(c)
DAV:   1    -0.161883410938E+04   -0.20768E-02   -0.25365E-01 12196   0.684E-01    0.152E-01
DAV:   2    -0.161883348430E+04    0.62508E-03   -0.55713E-03 16944   0.136E-01    0.987E-02
DAV:   3    -0.161883293138E+04    0.55292E-03   -0.27124E-03 17856   0.934E-02    0.634E-02
DAV:   4    -0.161883267257E+04    0.25881E-03   -0.64201E-04 15992   0.430E-02    0.254E-02
DAV:   5    -0.161883261453E+04    0.58041E-04   -0.24274E-04 15280   0.259E-02    0.109E-02
DAV:   6    -0.161883260482E+04    0.97037E-05   -0.50142E-05 12056   0.139E-02
   6 F= -.16188326E+04 E0= -.16188315E+04  d E =-.576917E-03
       N       E                     dE             d eps       ncg     rms          rms(c)
DAV:   1    -0.161883496489E+04   -0.23504E-02   -0.65743E-02 12208   0.378E-01    0.109E-01
DAV:   2    -0.161883453368E+04    0.43121E-03   -0.12221E-03 15160   0.529E-02    0.528E-02
DAV:   3    -0.161883448363E+04    0.50055E-04   -0.47760E-04 15768   0.362E-02    0.325E-02
DAV:   4    -0.161883445751E+04    0.26112E-04   -0.22728E-04 16336   0.300E-02    0.150E-02
DAV:   5    -0.161883447066E+04   -0.13150E-04   -0.91073E-05 14168   0.158E-02    0.517E-03
DAV:   6    -0.161883447204E+04   -0.13782E-05   -0.12369E-05  6792   0.602E-03
   7 F= -.16188345E+04 E0= -.16188332E+04  d E =-.186722E-02
       N       E                     dE             d eps       ncg     rms          rms(c)
DAV:   1    -0.161883510363E+04   -0.63297E-03   -0.70273E-02 12196   0.338E-01    0.428E-02
DAV:   2    -0.161883516158E+04   -0.57948E-04   -0.10683E-03 17096   0.615E-02    0.378E-02
DAV:   3    -0.161883506404E+04    0.97540E-04   -0.38921E-04 17618   0.359E-02    0.218E-02
DAV:   4    -0.161883504189E+04    0.22148E-04   -0.58000E-05 12576   0.125E-02    0.973E-03
DAV:   5    -0.161883503404E+04    0.78533E-05   -0.18198E-05  8056   0.895E-03
   8 F= -.16188350E+04 E0= -.16188338E+04  d E =-.561996E-03
       N       E                     dE             d eps       ncg     rms          rms(c)
DAV:   1    -0.161883527766E+04   -0.23577E-03   -0.39398E-02 12208   0.255E-01    0.313E-02
DAV:   2    -0.161883531437E+04   -0.36705E-04   -0.45718E-04 16824   0.360E-02    0.241E-02
DAV:   3    -0.161883529374E+04    0.20626E-04   -0.12789E-04 16016   0.208E-02    0.167E-02
DAV:   4    -0.161883529897E+04   -0.52295E-05   -0.32949E-05  8584   0.940E-03    0.444E-03
DAV:   5    -0.161883530201E+04   -0.30403E-05   -0.84935E-06  6848   0.624E-03
   9 F= -.16188353E+04 E0= -.16188341E+04  d E =-.267976E-03
       N       E                     dE             d eps       ncg     rms          rms(c)
DAV:   1    -0.161883542066E+04   -0.12168E-03   -0.28205E-03 12208   0.799E-02    0.252E-02
DAV:   2    -0.161883537082E+04    0.49840E-04   -0.67641E-05 13736   0.129E-02    0.125E-02
DAV:   3    -0.161883535606E+04    0.14757E-04   -0.26485E-05  9144   0.103E-02    0.835E-03
DAV:   4    -0.161883534208E+04    0.13978E-04   -0.88991E-06  7496   0.751E-03    0.344E-03
DAV:   5    -0.161883533530E+04    0.67805E-05   -0.60371E-06  6464   0.410E-03
  10 F= -.16188353E+04 E0= -.16188341E+04  d E =-.332878E-04
       N       E                     dE             d eps       ncg     rms          rms(c)
DAV:   1    -0.161883545597E+04   -0.11389E-03   -0.12925E-02 12208   0.145E-01    0.168E-02
DAV:   2    -0.161883546864E+04   -0.12671E-04   -0.12483E-04 15736   0.180E-02    0.126E-02
DAV:   3    -0.161883546527E+04    0.33732E-05   -0.22863E-05  8864   0.973E-03    0.930E-03
DAV:   4    -0.161883547011E+04   -0.48424E-05   -0.14212E-05  6520   0.581E-03    0.207E-03
DAV:   5    -0.161883547124E+04   -0.11318E-05   -0.39413E-06  6464   0.412E-03
  11 F= -.16188355E+04 E0= -.16188343E+04  d E =-.135943E-03
       N       E                     dE             d eps       ncg     rms          rms(c)
DAV:   1    -0.161883556205E+04   -0.91938E-04   -0.11273E-02 12208   0.135E-01    0.146E-02
DAV:   2    -0.161883556348E+04   -0.14270E-05   -0.10631E-04 15632   0.161E-02    0.114E-02
DAV:   3    -0.161883555861E+04    0.48647E-05   -0.19799E-05  8488   0.900E-03    0.843E-03
DAV:   4    -0.161883555310E+04    0.55125E-05   -0.11191E-05  6472   0.532E-03    0.216E-03
DAV:   5    -0.161883555235E+04    0.75489E-06   -0.34933E-06  6464   0.393E-03
  12 F= -.16188356E+04 E0= -.16188344E+04  d E =-.811009E-04
       N       E                     dE             d eps       ncg     rms          rms(c)
DAV:   1    -0.161883557645E+04   -0.23345E-04   -0.18381E-03 12208   0.572E-02    0.109E-02
DAV:   2    -0.161883558130E+04   -0.48536E-05   -0.16090E-05  6736   0.659E-03    0.593E-03
DAV:   3    -0.161883558616E+04   -0.48562E-05   -0.72055E-06  6472   0.491E-03    0.295E-03
DAV:   4    -0.161883558893E+04   -0.27736E-05   -0.32829E-06  6320   0.419E-03    0.134E-03
DAV:   5    -0.161883559066E+04   -0.17296E-05   -0.17325E-06  6320   0.240E-03
  13 F= -.16188356E+04 E0= -.16188344E+04  d E =-.383130E-04
       N       E                     dE             d eps       ncg     rms          rms(c)
DAV:   1    -0.161883564298E+04   -0.54049E-04   -0.34503E-03 12208   0.755E-02    0.102E-02
DAV:   2    -0.161883563552E+04    0.74554E-05   -0.24660E-05  8888   0.848E-03    0.644E-03
DAV:   3    -0.161883563289E+04    0.26314E-05   -0.87409E-06  6784   0.599E-03    0.452E-03
DAV:   4    -0.161883562864E+04    0.42463E-05   -0.48062E-06  6296   0.449E-03    0.157E-03
DAV:   5    -0.161883562759E+04    0.10570E-05   -0.26058E-06  6296   0.299E-03
  14 F= -.16188356E+04 E0= -.16188344E+04  d E =-.369292E-04
       N       E                     dE             d eps       ncg     rms          rms(c)
DAV:   1    -0.161883566318E+04   -0.34535E-04   -0.39942E-03 12208   0.802E-02    0.838E-03
DAV:   2    -0.161883566642E+04   -0.32392E-05   -0.26005E-05  8112   0.805E-03    0.603E-03
DAV:   3    -0.161883566784E+04   -0.14159E-05   -0.85746E-06  6432   0.498E-03    0.317E-03
DAV:   4    -0.161883566947E+04   -0.16335E-05   -0.48498E-06  6296   0.424E-03    0.727E-04
DAV:   5    -0.161883566949E+04   -0.22496E-07   -0.24617E-06  6296   0.285E-03
  15 F= -.16188357E+04 E0= -.16188345E+04  d E =-.419035E-04
       N       E                     dE             d eps       ncg     rms          rms(c)
DAV:   1    -0.161883570031E+04   -0.30843E-04   -0.24671E-03 12208   0.636E-02    0.818E-03
DAV:   2    -0.161883569483E+04    0.54830E-05   -0.17744E-05  6960   0.692E-03    0.518E-03
DAV:   3    -0.161883569234E+04    0.24841E-05   -0.67796E-06  6296   0.469E-03    0.323E-03
DAV:   4    -0.161883568969E+04    0.26530E-05   -0.36731E-06  6272   0.383E-03    0.124E-03
DAV:   5    -0.161883568898E+04    0.71503E-06   -0.20914E-06  6272   0.262E-03
  16 F= -.16188357E+04 E0= -.16188345E+04  d E =-.194855E-04
       N       E                     dE             d eps       ncg     rms          rms(c)
DAV:   1    -0.161883570097E+04   -0.11283E-04   -0.69708E-04 12208   0.344E-02    0.568E-03
DAV:   2    -0.161883570431E+04   -0.33370E-05   -0.63284E-06  6272   0.400E-03    0.330E-03
DAV:   3    -0.161883570678E+04   -0.24679E-05   -0.28270E-06  6272   0.273E-03    0.167E-03
DAV:   4    -0.161883570826E+04   -0.14839E-05   -0.14308E-06  6272   0.213E-03    0.799E-04
DAV:   5    -0.161883570901E+04   -0.75093E-06   -0.78941E-07  6272   0.155E-03
  17 F= -.16188357E+04 E0= -.16188345E+04  d E =-.200380E-04
       N       E                     dE             d eps       ncg     rms          rms(c)
DAV:   1    -0.161883573266E+04   -0.24395E-04   -0.23286E-03 12208   0.612E-02    0.618E-03
DAV:   2    -0.161883573213E+04    0.52701E-06   -0.13518E-05  7560   0.598E-03    0.448E-03
DAV:   3    -0.161883573128E+04    0.85609E-06   -0.49763E-06  6440   0.352E-03    0.207E-03
DAV:   4    -0.161883573067E+04    0.60156E-06   -0.27120E-06  6272   0.300E-03    0.589E-04
DAV:   5    -0.161883573088E+04   -0.20182E-06   -0.14289E-06  6272   0.212E-03
  18 F= -.16188357E+04 E0= -.16188345E+04  d E =-.218609E-04
       N       E                     dE             d eps       ncg     rms          rms(c)
DAV:   1    -0.161883575627E+04   -0.25600E-04   -0.63146E-03 12196   0.101E-01    0.106E-02
DAV:   2    -0.161883576253E+04   -0.62529E-05   -0.51635E-05 12016   0.980E-03    0.774E-03
DAV:   3    -0.161883576473E+04   -0.22025E-05   -0.91285E-06  6426   0.485E-03    0.297E-03
DAV:   4    -0.161883576669E+04   -0.19639E-05   -0.32291E-06  6272   0.352E-03    0.115E-03
DAV:   5    -0.161883576673E+04   -0.33944E-07   -0.14204E-06  6272   0.255E-03
  19 F= -.16188358E+04 E0= -.16188346E+04  d E =-.358514E-04
       N       E                     dE             d eps       ncg     rms          rms(c)
DAV:   1    -0.161883576682E+04   -0.12892E-06   -0.61689E-04 12208   0.331E-02    0.612E-03
DAV:   2    -0.161883576037E+04    0.64531E-05   -0.42615E-06  6272   0.352E-03    0.332E-03
DAV:   3    -0.161883575683E+04    0.35341E-05   -0.17524E-06  6272   0.229E-03    0.166E-03
DAV:   4    -0.161883575510E+04    0.17309E-05   -0.71613E-07  6272   0.184E-03    0.765E-04
DAV:   5    -0.161883575417E+04    0.93640E-06   -0.31706E-07  6272   0.111E-03
  20 F= -.16188358E+04 E0= -.16188346E+04  d E =0.125595E-04
       N       E                     dE             d eps       ncg     rms          rms(c)
DAV:   1    -0.161883577133E+04   -0.16224E-04   -0.22938E-03 12208   0.608E-02    0.575E-03
DAV:   2    -0.161883577200E+04   -0.67700E-06   -0.11297E-05  6280   0.550E-03    0.421E-03
DAV:   3    -0.161883577205E+04   -0.42207E-07   -0.40502E-06  6272   0.297E-03    0.892E-04
DAV:   4    -0.161883577226E+04   -0.21468E-06   -0.16696E-06  6272   0.227E-03    0.622E-04
DAV:   5    -0.161883577229E+04   -0.26248E-07   -0.88187E-07  6272   0.167E-03
  21 F= -.16188358E+04 E0= -.16188346E+04  d E =-.181202E-04
       N       E                     dE             d eps       ncg     rms          rms(c)
DAV:   1    -0.161883580824E+04   -0.35977E-04   -0.22986E-02 12100   0.192E-01    0.185E-02
DAV:   2    -0.161883581944E+04   -0.11204E-04   -0.19169E-04 17320   0.179E-02    0.142E-02
DAV:   3    -0.161883581346E+04    0.59848E-05   -0.16503E-05  7400   0.653E-03    0.404E-03
DAV:   4    -0.161883581309E+04    0.36539E-06   -0.52783E-06  6688   0.538E-03    0.219E-03
DAV:   5    -0.161883581294E+04    0.15143E-06   -0.14695E-06  6370   0.314E-03
  22 F= -.16188358E+04 E0= -.16188346E+04  d E =-.406530E-04
       N       E                     dE             d eps       ncg     rms          rms(c)
DAV:   1    -0.161883581638E+04   -0.32882E-05   -0.53355E-03 12160   0.933E-02    0.107E-02
DAV:   2    -0.161883582204E+04   -0.56585E-05   -0.34909E-05  9488   0.907E-03    0.715E-03
DAV:   3    -0.161883582523E+04   -0.31925E-05   -0.10282E-05  6474   0.518E-03    0.371E-03
DAV:   4    -0.161883582779E+04   -0.25581E-05   -0.48842E-06  6296   0.424E-03    0.138E-03
DAV:   5    -0.161883582863E+04   -0.83692E-06   -0.25125E-06  6272   0.293E-03
  23 F= -.16188358E+04 E0= -.16188346E+04  d E =-.156856E-04
       N       E                     dE             d eps       ncg     rms          rms(c)
DAV:   1    -0.161883583421E+04   -0.64166E-05   -0.14082E-03 12172   0.488E-02    0.715E-03
DAV:   2    -0.161883582752E+04    0.66862E-05   -0.77095E-06  6272   0.464E-03    0.419E-03
DAV:   3    -0.161883582374E+04    0.37802E-05   -0.27154E-06  6254   0.275E-03    0.215E-03
DAV:   4    -0.161883582167E+04    0.20742E-05   -0.11357E-06  6272   0.220E-03    0.941E-04
DAV:   5    -0.161883582080E+04    0.86954E-06   -0.50625E-07  6272   0.137E-03
  24 F= -.16188358E+04 E0= -.16188346E+04  d E =0.783049E-05
       N       E                     dE             d eps       ncg     rms          rms(c)
DAV:   1    -0.161883582405E+04   -0.23820E-05   -0.50695E-04 12208   0.286E-02    0.261E-03
DAV:   2    -0.161883582421E+04   -0.16766E-06   -0.22959E-06  6272   0.252E-03    0.192E-03
DAV:   3    -0.161883582426E+04   -0.44056E-07   -0.69208E-07  6272   0.130E-03    0.711E-04
DAV:   4    -0.161883582433E+04   -0.72558E-07   -0.33365E-07  6272   0.107E-03    0.319E-04
DAV:   5    -0.161883582432E+04    0.68690E-08   -0.15728E-07  6272   0.707E-04
  25 F= -.16188358E+04 E0= -.16188346E+04  d E =-.352889E-05
       N       E                     dE             d eps       ncg     rms          rms(c)
DAV:   1    -0.161883582988E+04   -0.55446E-05   -0.36766E-03 12136   0.769E-02    0.738E-03
DAV:   2    -0.161883583107E+04   -0.11902E-05   -0.19393E-05  6816   0.716E-03    0.542E-03
DAV:   3    -0.161883583116E+04   -0.97451E-07   -0.75823E-06  6294   0.398E-03    0.874E-04
DAV:   4    -0.161883583151E+04   -0.34934E-06   -0.30956E-06  6272   0.285E-03    0.689E-04
DAV:   5    -0.161883583161E+04   -0.98166E-07   -0.16791E-06  6254   0.221E-03
  26 F= -.16188358E+04 E0= -.16188347E+04  d E =-.728670E-05
