       N       E                     dE             d eps       ncg     rms          rms(c)
DAV:   1     0.199499955259E+04    0.19950E+04   -0.27968E+05 11284   0.142E+03
DAV:   2    -0.118887154639E+04   -0.31839E+04   -0.30581E+04 13054   0.273E+02
DAV:   3    -0.158842505037E+04   -0.39955E+03   -0.36422E+03 17640   0.821E+01
DAV:   4    -0.161331308504E+04   -0.24888E+02   -0.22594E+02 15992   0.164E+01
DAV:   5    -0.161443039689E+04   -0.11173E+01   -0.10925E+01 17024   0.437E+00    0.385E+01
DAV:   6    -0.157583041682E+04    0.38600E+02   -0.10037E+02 17280   0.135E+01    0.220E+01
DAV:   7    -0.156741134936E+04    0.84191E+01   -0.85627E+01 17000   0.144E+01    0.173E+01
DAV:   8    -0.155692685283E+04    0.10484E+02   -0.57065E+01 16760   0.118E+01    0.105E+01
DAV:   9    -0.155104193106E+04    0.58849E+01   -0.26740E+01 16584   0.796E+00    0.334E+00
DAV:  10    -0.155081578938E+04    0.22614E+00   -0.53915E+00 16144   0.322E+00    0.143E+00
DAV:  11    -0.155082208994E+04   -0.63006E-02   -0.64002E-01 14696   0.115E+00    0.105E+00
DAV:  12    -0.155080459772E+04    0.17492E-01   -0.18105E-01 15608   0.641E-01    0.696E-01
DAV:  13    -0.155078928053E+04    0.15317E-01   -0.76666E-02 14592   0.450E-01    0.384E-01
DAV:  14    -0.155078406862E+04    0.52119E-02   -0.23747E-02 15088   0.218E-01    0.176E-01
DAV:  15    -0.155078337685E+04    0.69177E-03   -0.64734E-03 16120   0.126E-01    0.102E-01
DAV:  16    -0.155078314118E+04    0.23566E-03   -0.19898E-03 15744   0.705E-02    0.609E-02
DAV:  17    -0.155078307055E+04    0.70637E-04   -0.78660E-04 13792   0.401E-02    0.316E-02
DAV:  18    -0.155078306558E+04    0.49670E-05   -0.24079E-04 15360   0.239E-02    0.168E-02
DAV:  19    -0.155078305774E+04    0.78443E-05   -0.66331E-05 11296   0.142E-02
   1 F= -.15507831E+04 E0= -.15507793E+04  d E =-.155078E+04
       N       E                     dE             d eps       ncg     rms          rms(c)
DAV:   1    -0.155576085958E+04   -0.49778E+01   -0.24067E+03 11284   0.755E+01    0.269E+01
DAV:   2    -0.152775118213E+04    0.28010E+02   -0.15980E+02 17976   0.171E+01    0.167E+01
DAV:   3    -0.152020973540E+04    0.75414E+01   -0.89591E+01 19248   0.127E+01    0.128E+01
DAV:   4    -0.151551430948E+04    0.46954E+01   -0.31514E+01 19184   0.783E+00    0.943E+00
DAV:   5    -0.151169231190E+04    0.38220E+01   -0.23436E+01 18320   0.609E+00    0.413E+00
DAV:   6    -0.151116103987E+04    0.53127E+00   -0.59102E+00 18240   0.315E+00    0.257E+00
DAV:   7    -0.151103415697E+04    0.12688E+00   -0.10961E+00 17080   0.140E+00    0.182E+00
DAV:   8    -0.151098075565E+04    0.53401E-01   -0.39365E-01 17656   0.672E-01    0.870E-01
DAV:   9    -0.151098482550E+04   -0.40699E-02   -0.23448E-01 17848   0.472E-01    0.465E-01
DAV:  10    -0.151098077608E+04    0.40494E-02   -0.46357E-02 17136   0.298E-01    0.222E-01
DAV:  11    -0.151098053652E+04    0.23956E-03   -0.14091E-02 19328   0.152E-01    0.146E-01
DAV:  12    -0.151098068489E+04   -0.14837E-03   -0.51585E-03 18096   0.985E-02    0.955E-02
DAV:  13    -0.151098111444E+04   -0.42955E-03   -0.24628E-03 16808   0.577E-02    0.420E-02
DAV:  14    -0.151098130725E+04   -0.19280E-03   -0.90752E-04 18360   0.365E-02    0.437E-02
DAV:  15    -0.151098127820E+04    0.29049E-04   -0.24452E-04 16704   0.228E-02    0.322E-02
DAV:  16    -0.151098125243E+04    0.25772E-04   -0.14249E-04 16408   0.149E-02    0.140E-02
DAV:  17    -0.151098125721E+04   -0.47896E-05   -0.50502E-05  9456   0.860E-03
   2 F= -.15109813E+04 E0= -.15109909E+04  d E =0.398018E+02
       N       E                     dE             d eps       ncg     rms          rms(c)
DAV:   1    -0.158109394981E+04   -0.70113E+02   -0.12035E+03 11284   0.590E+01    0.187E+01
DAV:   2    -0.156654757154E+04    0.14546E+02   -0.45443E+01 16956   0.106E+01    0.939E+00
DAV:   3    -0.156392217502E+04    0.26254E+01   -0.25742E+01 16824   0.733E+00    0.728E+00
DAV:   4    -0.156192964656E+04    0.19925E+01   -0.11162E+01 17280   0.538E+00    0.486E+00
DAV:   5    -0.156071091060E+04    0.12187E+01   -0.64015E+00 16816   0.388E+00    0.181E+00
DAV:   6    -0.156060216568E+04    0.10874E+00   -0.15348E+00 15416   0.175E+00    0.834E-01
DAV:   7    -0.156061490150E+04   -0.12736E-01   -0.21736E-01 14976   0.653E-01    0.618E-01
DAV:   8    -0.156061927698E+04   -0.43755E-02   -0.44436E-02 16168   0.291E-01    0.371E-01
DAV:   9    -0.156063016142E+04   -0.10884E-01   -0.49659E-02 16600   0.261E-01    0.253E-01
DAV:  10    -0.156062981493E+04    0.34649E-03   -0.10741E-02 15352   0.168E-01    0.137E-01
DAV:  11    -0.156062955897E+04    0.25596E-03   -0.48070E-03 16616   0.849E-02    0.557E-02
DAV:  12    -0.156062988398E+04   -0.32501E-03   -0.11806E-03 16072   0.481E-02    0.491E-02
DAV:  13    -0.156063005256E+04   -0.16858E-03   -0.47696E-04 14776   0.342E-02    0.316E-02
DAV:  14    -0.156063005516E+04   -0.25979E-05   -0.18575E-04 15160   0.174E-02    0.121E-02
DAV:  15    -0.156063004935E+04    0.58130E-05   -0.28529E-05  7008   0.790E-03
   3 F= -.15606300E+04 E0= -.15606448E+04  d E =-.496488E+02
       N       E                     dE             d eps       ncg     rms          rms(c)
DAV:   1    -0.156100257878E+04   -0.37252E+00   -0.27109E+01 11284   0.726E+00    0.115E+00
DAV:   2    -0.156098349140E+04    0.19087E-01   -0.43008E-01 16320   0.759E-01    0.660E-01
DAV:   3    -0.156097954042E+04    0.39510E-02   -0.96883E-02 18480   0.454E-01    0.562E-01
DAV:   4    -0.156096553019E+04    0.14010E-01   -0.51075E-02 18040   0.361E-01    0.297E-01
DAV:   5    -0.156096215131E+04    0.33789E-02   -0.24674E-02 15776   0.226E-01    0.116E-01
DAV:   6    -0.156096199699E+04    0.15432E-03   -0.53161E-03 15440   0.114E-01    0.796E-02
DAV:   7    -0.156096190620E+04    0.90791E-04   -0.13734E-03 15880   0.602E-02    0.545E-02
DAV:   8    -0.156096186388E+04    0.42317E-04   -0.50991E-04 16088   0.318E-02    0.301E-02
DAV:   9    -0.156096188418E+04   -0.20302E-04   -0.19272E-04 15064   0.199E-02    0.188E-02
DAV:  10    -0.156096188922E+04   -0.50369E-05   -0.58091E-05 11128   0.139E-02
   4 F= -.15609619E+04 E0= -.15609776E+04  d E =-.331840E+00
       N       E                     dE             d eps       ncg     rms          rms(c)
DAV:   1    -0.156101635897E+04   -0.54475E-01   -0.43410E+00 11284   0.281E+00    0.453E-01
DAV:   2    -0.156101668747E+04   -0.32850E-03   -0.10291E-01 17616   0.438E-01    0.318E-01
DAV:   3    -0.156101314774E+04    0.35397E-02   -0.30544E-02 18184   0.271E-01    0.226E-01
DAV:   4    -0.156101119983E+04    0.19479E-02   -0.82567E-03 18720   0.133E-01    0.145E-01
DAV:   5    -0.156101052585E+04    0.67398E-03   -0.38267E-03 15992   0.868E-02    0.828E-02
DAV:   6    -0.156101025371E+04    0.27215E-03   -0.17109E-03 15392   0.610E-02    0.387E-02
DAV:   7    -0.156101021395E+04    0.39754E-04   -0.37306E-04 15368   0.322E-02    0.257E-02
DAV:   8    -0.156101020951E+04    0.44469E-05   -0.11034E-04 13408   0.149E-02    0.147E-02
DAV:   9    -0.156101021597E+04   -0.64614E-05   -0.48595E-05  9752   0.101E-02
   5 F= -.15610102E+04 E0= -.15610243E+04  d E =-.483267E-01
       N       E                     dE             d eps       ncg     rms          rms(c)
DAV:   1    -0.156102788671E+04   -0.17677E-01   -0.19033E+00 11284   0.185E+00    0.220E-01
DAV:   2    -0.156102949991E+04   -0.16132E-02   -0.29031E-02 16656   0.211E-01    0.174E-01
DAV:   3    -0.156102864668E+04    0.85323E-03   -0.60933E-03 17952   0.122E-01    0.124E-01
DAV:   4    -0.156102830205E+04    0.34463E-03   -0.20136E-03 16408   0.653E-02    0.783E-02
DAV:   5    -0.156102814784E+04    0.15422E-03   -0.12453E-03 14768   0.512E-02    0.328E-02
DAV:   6    -0.156102813698E+04    0.10851E-04   -0.35548E-04 15632   0.298E-02    0.186E-02
DAV:   7    -0.156102812603E+04    0.10953E-04   -0.94519E-05 13544   0.163E-02    0.118E-02
DAV:   8    -0.156102811832E+04    0.77065E-05   -0.21022E-05  7008   0.812E-03
   6 F= -.15610281E+04 E0= -.15610422E+04  d E =-.179024E-01
       N       E                     dE             d eps       ncg     rms          rms(c)
DAV:   1    -0.156103695446E+04   -0.88284E-02   -0.47762E-01 11345   0.964E-01    0.198E-01
DAV:   2    -0.156103619528E+04    0.75918E-03   -0.13129E-02 17792   0.168E-01    0.134E-01
DAV:   3    -0.156103549307E+04    0.70221E-03   -0.53785E-03 17997   0.114E-01    0.953E-02
DAV:   4    -0.156103507682E+04    0.41625E-03   -0.16092E-03 18032   0.590E-02    0.588E-02
DAV:   5    -0.156103489620E+04    0.18063E-03   -0.75928E-04 15824   0.399E-02    0.311E-02
DAV:   6    -0.156103483328E+04    0.62916E-04   -0.28487E-04 15472   0.254E-02    0.154E-02
DAV:   7    -0.156103482501E+04    0.82687E-05   -0.55389E-05 11416   0.131E-02
   7 F= -.15610348E+04 E0= -.15610482E+04  d E =-.670669E-02
       N       E                     dE             d eps       ncg     rms          rms(c)
DAV:   1    -0.156103981536E+04   -0.49821E-02   -0.39679E-01 11318   0.846E-01    0.105E-01
DAV:   2    -0.156104014684E+04   -0.33148E-03   -0.54653E-03 16616   0.935E-02    0.844E-02
DAV:   3    -0.156103993920E+04    0.20763E-03   -0.13164E-03 18005   0.566E-02    0.590E-02
DAV:   4    -0.156103988143E+04    0.57775E-04   -0.44578E-04 15744   0.307E-02    0.339E-02
DAV:   5    -0.156103986678E+04    0.14649E-04   -0.26032E-04 14896   0.243E-02    0.135E-02
DAV:   6    -0.156103986674E+04    0.38600E-07   -0.63011E-05 12392   0.139E-02
   8 F= -.15610399E+04 E0= -.15610533E+04  d E =-.504173E-02
       N       E                     dE             d eps       ncg     rms          rms(c)
DAV:   1    -0.156104269645E+04   -0.28297E-02   -0.24259E-01 11323   0.655E-01    0.885E-02
DAV:   2    -0.156104286894E+04   -0.17249E-03   -0.43200E-03 17472   0.933E-02    0.766E-02
DAV:   3    -0.156104260310E+04    0.26584E-03   -0.14135E-03 17876   0.594E-02    0.472E-02
DAV:   4    -0.156104252859E+04    0.74516E-04   -0.33445E-04 17496   0.261E-02    0.324E-02
DAV:   5    -0.156104248257E+04    0.46023E-04   -0.17350E-04 15152   0.194E-02    0.171E-02
DAV:   6    -0.156104246519E+04    0.17376E-04   -0.69564E-05 13048   0.140E-02    0.883E-03
DAV:   7    -0.156104246180E+04    0.33932E-05   -0.17300E-05  6760   0.798E-03
   9 F= -.15610425E+04 E0= -.15610556E+04  d E =-.259505E-02
       N       E                     dE             d eps       ncg     rms          rms(c)
DAV:   1    -0.156104387035E+04   -0.14052E-02   -0.11489E-01 11342   0.453E-01    0.551E-02
DAV:   2    -0.156104396413E+04   -0.93784E-04   -0.13736E-03 16544   0.476E-02    0.441E-02
DAV:   3    -0.156104391360E+04    0.50531E-04   -0.34073E-04 17996   0.288E-02    0.313E-02
DAV:   4    -0.156104390673E+04    0.68723E-05   -0.11298E-04 14288   0.157E-02    0.161E-02
DAV:   5    -0.156104391139E+04   -0.46579E-05   -0.55965E-05 10952   0.124E-02
  10 F= -.15610439E+04 E0= -.15610571E+04  d E =-.144959E-02
       N       E                     dE             d eps       ncg     rms          rms(c)
DAV:   1    -0.156104501116E+04   -0.11044E-02   -0.67021E-02 11366   0.346E-01    0.501E-02
DAV:   2    -0.156104500267E+04    0.84839E-05   -0.10710E-03 17280   0.468E-02    0.394E-02
DAV:   3    -0.156104493685E+04    0.65823E-04   -0.36366E-04 17952   0.309E-02    0.264E-02
DAV:   4    -0.156104490342E+04    0.33431E-04   -0.92458E-05 13912   0.143E-02    0.167E-02
DAV:   5    -0.156104488214E+04    0.21275E-04   -0.45339E-05  9616   0.111E-02    0.837E-03
DAV:   6    -0.156104487466E+04    0.74821E-05   -0.14218E-05  6760   0.805E-03
  11 F= -.15610449E+04 E0= -.15610579E+04  d E =-.963275E-03
       N       E                     dE             d eps       ncg     rms          rms(c)
DAV:   1    -0.156104574183E+04   -0.85969E-03   -0.80356E-02 11314   0.374E-01    0.370E-02
DAV:   2    -0.156104581970E+04   -0.77870E-04   -0.84408E-04 16616   0.371E-02    0.328E-02
DAV:   3    -0.156104579012E+04    0.29581E-04   -0.15897E-04 16155   0.203E-02    0.232E-02
DAV:   4    -0.156104578846E+04    0.16657E-05   -0.56632E-05 11216   0.113E-02    0.125E-02
DAV:   5    -0.156104579012E+04   -0.16597E-05   -0.24223E-05  7465   0.919E-03
  12 F= -.15610458E+04 E0= -.15610588E+04  d E =-.915454E-03
       N       E                     dE             d eps       ncg     rms          rms(c)
DAV:   1    -0.156104641759E+04   -0.62913E-03   -0.48859E-02 11372   0.293E-01    0.350E-02
DAV:   2    -0.156104642516E+04   -0.75687E-05   -0.63703E-04 17040   0.346E-02    0.288E-02
DAV:   3    -0.156104639211E+04    0.33048E-04   -0.16866E-04 16456   0.216E-02    0.195E-02
DAV:   4    -0.156104637459E+04    0.17522E-04   -0.41759E-05  9640   0.103E-02    0.125E-02
DAV:   5    -0.156104636140E+04    0.13186E-04   -0.21623E-05  6704   0.842E-03    0.580E-03
DAV:   6    -0.156104635736E+04    0.40454E-05   -0.72077E-06  6392   0.603E-03
  13 F= -.15610464E+04 E0= -.15610593E+04  d E =-.567240E-03
       N       E                     dE             d eps       ncg     rms          rms(c)
DAV:   1    -0.156104677139E+04   -0.40999E-03   -0.27000E-02 11338   0.218E-01    0.244E-02
DAV:   2    -0.156104679380E+04   -0.22407E-04   -0.25917E-04 16448   0.198E-02    0.174E-02
DAV:   3    -0.156104679281E+04    0.98613E-06   -0.29727E-05  8660   0.997E-03    0.138E-02
DAV:   4    -0.156104679668E+04   -0.38676E-05   -0.17782E-05  6880   0.786E-03    0.578E-03
DAV:   5    -0.156104680097E+04   -0.42899E-05   -0.76099E-06  6245   0.554E-03
  14 F= -.15610468E+04 E0= -.15610598E+04  d E =-.443614E-03
       N       E                     dE             d eps       ncg     rms          rms(c)
DAV:   1    -0.156104725846E+04   -0.46178E-03   -0.38070E-02 11338   0.256E-01    0.260E-02
DAV:   2    -0.156104727313E+04   -0.14675E-04   -0.39235E-04 16848   0.261E-02    0.220E-02
DAV:   3    -0.156104725701E+04    0.16124E-04   -0.70019E-05 12744   0.148E-02    0.158E-02
DAV:   4    -0.156104724685E+04    0.10155E-04   -0.22413E-05  6816   0.824E-03    0.934E-03
DAV:   5    -0.156104723971E+04    0.71428E-05   -0.13321E-05  6384   0.729E-03
  15 F= -.15610472E+04 E0= -.15610602E+04  d E =-.438738E-03
       N       E                     dE             d eps       ncg     rms          rms(c)
DAV:   1    -0.156104762311E+04   -0.37626E-03   -0.38228E-02 11338   0.257E-01    0.238E-02
DAV:   2    -0.156104765399E+04   -0.30887E-04   -0.34445E-04 16528   0.228E-02    0.189E-02
DAV:   3    -0.156104764981E+04    0.41818E-05   -0.29214E-05  8554   0.104E-02    0.150E-02
DAV:   4    -0.156104765213E+04   -0.23208E-05   -0.22762E-05  6576   0.788E-03    0.474E-03
DAV:   5    -0.156104765441E+04   -0.22742E-05   -0.72936E-06  6288   0.579E-03
  16 F= -.15610477E+04 E0= -.15610606E+04  d E =-.414699E-03
       N       E                     dE             d eps       ncg     rms          rms(c)
DAV:   1    -0.156104789085E+04   -0.23871E-03   -0.13149E-02 11362   0.153E-01    0.192E-02
DAV:   2    -0.156104787846E+04    0.12382E-04   -0.15169E-04 15848   0.165E-02    0.134E-02
DAV:   3    -0.156104787078E+04    0.76799E-05   -0.26878E-05  8240   0.103E-02    0.101E-02
DAV:   4    -0.156104786291E+04    0.78785E-05   -0.12294E-05  6336   0.678E-03    0.605E-03
DAV:   5    -0.156104785604E+04    0.68705E-05   -0.76153E-06  6080   0.508E-03
  17 F= -.15610479E+04 E0= -.15610608E+04  d E =-.201628E-03
       N       E                     dE             d eps       ncg     rms          rms(c)
DAV:   1    -0.156104810436E+04   -0.24145E-03   -0.19632E-02 11338   0.184E-01    0.177E-02
DAV:   2    -0.156104812096E+04   -0.16600E-04   -0.17171E-04 16008   0.162E-02    0.136E-02
DAV:   3    -0.156104812012E+04    0.83492E-06   -0.13038E-05  7204   0.744E-03    0.108E-02
DAV:   4    -0.156104812336E+04   -0.32347E-05   -0.12264E-05  6240   0.607E-03    0.294E-03
DAV:   5    -0.156104812461E+04   -0.12537E-05   -0.36412E-06  6071   0.403E-03
  18 F= -.15610481E+04 E0= -.15610611E+04  d E =-.268575E-03
       N       E                     dE             d eps       ncg     rms          rms(c)
DAV:   1    -0.156104839974E+04   -0.27638E-03   -0.27763E-02 11332   0.219E-01    0.204E-02
DAV:   2    -0.156104840680E+04   -0.70551E-05   -0.25173E-04 16672   0.197E-02    0.157E-02
DAV:   3    -0.156104840124E+04    0.55559E-05   -0.19873E-05  7709   0.910E-03    0.125E-02
DAV:   4    -0.156104839400E+04    0.72415E-05   -0.13875E-05  6440   0.694E-03    0.647E-03
DAV:   5    -0.156104838990E+04    0.40943E-05   -0.81990E-06  6120   0.570E-03
  19 F= -.15610484E+04 E0= -.15610613E+04  d E =-.265293E-03
       N       E                     dE             d eps       ncg     rms          rms(c)
DAV:   1    -0.156104852021E+04   -0.12622E-03   -0.81579E-03 11362   0.120E-01    0.131E-02
DAV:   2    -0.156104853113E+04   -0.10915E-04   -0.74020E-05 13392   0.112E-02    0.922E-03
DAV:   3    -0.156104853225E+04   -0.11202E-05   -0.10955E-05  6784   0.640E-03    0.726E-03
DAV:   4    -0.156104853655E+04   -0.43048E-05   -0.58453E-06  6080   0.448E-03    0.296E-03
DAV:   5    -0.156104853930E+04   -0.27415E-05   -0.26947E-06  6056   0.319E-03
  20 F= -.15610485E+04 E0= -.15610615E+04  d E =-.149392E-03
       N       E                     dE             d eps       ncg     rms          rms(c)
DAV:   1    -0.156104871132E+04   -0.17477E-03   -0.12407E-02 11344   0.146E-01    0.151E-02
DAV:   2    -0.156104870918E+04    0.21427E-05   -0.11851E-04 15552   0.136E-02    0.112E-02
DAV:   3    -0.156104870543E+04    0.37495E-05   -0.11963E-05  6991   0.700E-03    0.882E-03
DAV:   4    -0.156104870015E+04    0.52849E-05   -0.72535E-06  6080   0.511E-03    0.484E-03
DAV:   5    -0.156104869631E+04    0.38358E-05   -0.43469E-06  6050   0.404E-03
  21 F= -.15610487E+04 E0= -.15610616E+04  d E =-.157016E-03
       N       E                     dE             d eps       ncg     rms          rms(c)
DAV:   1    -0.156104885472E+04   -0.15458E-03   -0.14770E-02 11338   0.159E-01    0.142E-02
DAV:   2    -0.156104886696E+04   -0.12232E-04   -0.12725E-04 15736   0.138E-02    0.112E-02
DAV:   3    -0.156104886647E+04    0.48618E-06   -0.83627E-06  6693   0.592E-03    0.894E-03
DAV:   4    -0.156104886830E+04   -0.18324E-05   -0.84147E-06  6080   0.495E-03    0.223E-03
DAV:   5    -0.156104886894E+04   -0.63547E-06   -0.23174E-06  6056   0.324E-03
  22 F= -.15610489E+04 E0= -.15610618E+04  d E =-.172626E-03
       N       E                     dE             d eps       ncg     rms          rms(c)
DAV:   1    -0.156104901399E+04   -0.14569E-03   -0.12633E-02 11350   0.148E-01    0.148E-02
DAV:   2    -0.156104901125E+04    0.27450E-05   -0.11763E-04 15472   0.135E-02    0.107E-02
DAV:   3    -0.156104900756E+04    0.36819E-05   -0.11182E-05  6885   0.673E-03    0.841E-03
DAV:   4    -0.156104900256E+04    0.49998E-05   -0.64723E-06  6112   0.516E-03    0.472E-03
DAV:   5    -0.156104899864E+04    0.39294E-05   -0.41835E-06  6056   0.394E-03
  23 F= -.15610490E+04 E0= -.15610619E+04  d E =-.129698E-03
       N       E                     dE             d eps       ncg     rms          rms(c)
DAV:   1    -0.156104906956E+04   -0.66994E-04   -0.37907E-03 11350   0.818E-02    0.936E-03
DAV:   2    -0.156104907563E+04   -0.60687E-05   -0.23325E-05  7592   0.773E-03    0.635E-03
DAV:   3    -0.156104907731E+04   -0.16817E-05   -0.84245E-06  6162   0.533E-03    0.490E-03
DAV:   4    -0.156104908126E+04   -0.39529E-05   -0.53259E-06  5984   0.396E-03    0.180E-03
DAV:   5    -0.156104908279E+04   -0.15274E-05   -0.27426E-06  5952   0.288E-03
  24 F= -.15610491E+04 E0= -.15610620E+04  d E =-.841541E-04
       N       E                     dE             d eps       ncg     rms          rms(c)
DAV:   1    -0.156104919984E+04   -0.11858E-03   -0.10334E-02 11344   0.133E-01    0.128E-02
DAV:   2    -0.156104920092E+04   -0.10798E-05   -0.10035E-04 15232   0.120E-02    0.965E-03
DAV:   3    -0.156104919848E+04    0.24349E-05   -0.77487E-06  6397   0.536E-03    0.743E-03
DAV:   4    -0.156104919493E+04    0.35506E-05   -0.49679E-06  6056   0.451E-03    0.378E-03
DAV:   5    -0.156104919272E+04    0.22137E-05   -0.28403E-06  5984   0.349E-03
  25 F= -.15610492E+04 E0= -.15610621E+04  d E =-.109930E-03
       N       E                     dE             d eps       ncg     rms          rms(c)
DAV:   1    -0.156104925921E+04   -0.64276E-04   -0.43274E-03 11344   0.864E-02    0.799E-03
DAV:   2    -0.156104926381E+04   -0.46031E-05   -0.24435E-05  7728   0.769E-03    0.589E-03
DAV:   3    -0.156104926494E+04   -0.11233E-05   -0.83744E-06  6101   0.477E-03    0.454E-03
DAV:   4    -0.156104926796E+04   -0.30256E-05   -0.54530E-06  5912   0.373E-03    0.119E-03
DAV:   5    -0.156104926860E+04   -0.64071E-06   -0.26254E-06  5912   0.275E-03
  26 F= -.15610493E+04 E0= -.15610622E+04  d E =-.758824E-04
       N       E                     dE             d eps       ncg     rms          rms(c)
DAV:   1    -0.156104936458E+04   -0.96624E-04   -0.89451E-03 11344   0.124E-01    0.122E-02
DAV:   2    -0.156104936351E+04    0.10792E-05   -0.88880E-05 14672   0.113E-02    0.896E-03
DAV:   3    -0.156104936067E+04    0.28321E-05   -0.76065E-06  6258   0.517E-03    0.668E-03
DAV:   4    -0.156104935724E+04    0.34383E-05   -0.42324E-06  5960   0.432E-03    0.364E-03
DAV:   5    -0.156104935464E+04    0.25912E-05   -0.25298E-06  5960   0.326E-03
  27 F= -.15610494E+04 E0= -.15610623E+04  d E =-.860421E-04
       N       E                     dE             d eps       ncg     rms          rms(c)
DAV:   1    -0.156104938523E+04   -0.27995E-04   -0.11326E-03 11356   0.450E-02    0.557E-03
DAV:   2    -0.156104938928E+04   -0.40470E-05   -0.77456E-06  5864   0.447E-03    0.366E-03
DAV:   3    -0.156104939038E+04   -0.11026E-05   -0.29212E-06  5861   0.323E-03    0.284E-03
DAV:   4    -0.156104939296E+04   -0.25834E-05   -0.17980E-06  5864   0.230E-03    0.107E-03
DAV:   5    -0.156104939399E+04   -0.10259E-05   -0.95018E-07  5864   0.167E-03
  28 F= -.15610494E+04 E0= -.15610623E+04  d E =-.393447E-04
       N       E                     dE             d eps       ncg     rms          rms(c)
DAV:   1    -0.156104947363E+04   -0.80671E-04   -0.77792E-03 11344   0.115E-01    0.105E-02
DAV:   2    -0.156104947517E+04   -0.15321E-05   -0.65054E-05 12408   0.999E-03    0.807E-03
DAV:   3    -0.156104947390E+04    0.12703E-05   -0.77508E-06  6216   0.496E-03    0.582E-03
DAV:   4    -0.156104947170E+04    0.21991E-05   -0.40448E-06  5960   0.396E-03    0.232E-03
DAV:   5    -0.156104947098E+04    0.71920E-06   -0.19297E-06  5912   0.284E-03
  29 F= -.15610495E+04 E0= -.15610624E+04  d E =-.769887E-04
       N       E                     dE             d eps       ncg     rms          rms(c)
DAV:   1    -0.156104953167E+04   -0.59969E-04   -0.66009E-03 11344   0.107E-01    0.100E-02
DAV:   2    -0.156104953891E+04   -0.72401E-05   -0.53270E-05 11112   0.927E-03    0.742E-03
DAV:   3    -0.156104954034E+04   -0.14312E-05   -0.83973E-06  6173   0.514E-03    0.562E-03
DAV:   4    -0.156104954264E+04   -0.23057E-05   -0.39173E-06  5936   0.368E-03    0.203E-03
DAV:   5    -0.156104954397E+04   -0.13304E-05   -0.19012E-06  5864   0.253E-03
  30 F= -.15610495E+04 E0= -.15610625E+04  d E =-.729955E-04
       N       E                     dE             d eps       ncg     rms          rms(c)
DAV:   1    -0.156104957633E+04   -0.33691E-04   -0.10631E-03 11356   0.439E-02    0.649E-03
DAV:   2    -0.156104957027E+04    0.60666E-05   -0.92339E-06  5807   0.496E-03    0.385E-03
DAV:   3    -0.156104956871E+04    0.15549E-05   -0.38037E-06  5807   0.393E-03    0.305E-03
DAV:   4    -0.156104956629E+04    0.24225E-05   -0.18955E-06  5807   0.263E-03    0.157E-03
DAV:   5    -0.156104956476E+04    0.15286E-05   -0.11454E-06  5807   0.182E-03
  31 F= -.15610496E+04 E0= -.15610625E+04  d E =-.207880E-04
       N       E                     dE             d eps       ncg     rms          rms(c)
DAV:   1    -0.156104961248E+04   -0.46192E-04   -0.45043E-03 11344   0.878E-02    0.805E-03
DAV:   2    -0.156104961540E+04   -0.29147E-05   -0.26678E-05  8344   0.760E-03    0.601E-03
DAV:   3    -0.156104961633E+04   -0.93475E-06   -0.86696E-06  6088   0.456E-03    0.444E-03
DAV:   4    -0.156104961774E+04   -0.14081E-05   -0.55846E-06  5840   0.385E-03    0.104E-03
DAV:   5    -0.156104961799E+04   -0.25400E-06   -0.26398E-06  5831   0.265E-03
  32 F= -.15610496E+04 E0= -.15610625E+04  d E =-.532320E-04
       N       E                     dE             d eps       ncg     rms          rms(c)
DAV:   1    -0.156104968018E+04   -0.62443E-04   -0.80960E-03 11326   0.118E-01    0.112E-02
DAV:   2    -0.156104967990E+04    0.28199E-06   -0.78817E-05 13976   0.107E-02    0.834E-03
DAV:   3    -0.156104967752E+04    0.23766E-05   -0.70025E-06  6167   0.487E-03    0.607E-03
DAV:   4    -0.156104967463E+04    0.28975E-05   -0.37116E-06  5936   0.404E-03    0.323E-03
DAV:   5    -0.156104967261E+04    0.20134E-05   -0.21394E-06  5870   0.309E-03
  33 F= -.15610497E+04 E0= -.15610626E+04  d E =-.546195E-04
       N       E                     dE             d eps       ncg     rms          rms(c)
DAV:   1    -0.156104966708E+04    0.75506E-05   -0.14114E-04 11132   0.178E-02    0.448E-03
DAV:   2    -0.156104967052E+04   -0.34465E-05   -0.18818E-06  5759   0.256E-03    0.243E-03
DAV:   3    -0.156104967178E+04   -0.12558E-05   -0.85129E-07  5759   0.228E-03    0.201E-03
DAV:   4    -0.156104967349E+04   -0.17076E-05   -0.46039E-07  5759   0.150E-03    0.786E-04
DAV:   5    -0.156104967457E+04   -0.10871E-05   -0.23645E-07  5759   0.845E-04
  34 F= -.15610497E+04 E0= -.15610626E+04  d E =-.195965E-05
       N       E                     dE             d eps       ncg     rms          rms(c)
DAV:   1    -0.156104971603E+04   -0.42544E-04   -0.42600E-03 11344   0.854E-02    0.735E-03
DAV:   2    -0.156104971670E+04   -0.67296E-06   -0.21377E-05  7160   0.711E-03    0.547E-03
DAV:   3    -0.156104971678E+04   -0.81649E-07   -0.73846E-06  5968   0.408E-03    0.370E-03
DAV:   4    -0.156104971644E+04    0.34037E-06   -0.44429E-06  5816   0.358E-03    0.107E-03
DAV:   5    -0.156104971657E+04   -0.12987E-06   -0.22259E-06  5807   0.245E-03
  35 F= -.15610497E+04 E0= -.15610626E+04  d E =-.420015E-04
       N       E                     dE             d eps       ncg     rms          rms(c)
DAV:   1    -0.156104985326E+04   -0.13682E-03   -0.12102E-01 11290   0.455E-01    0.393E-02
DAV:   2    -0.156104991545E+04   -0.62188E-04   -0.10192E-03 16768   0.381E-02    0.306E-02
DAV:   3    -0.156104990477E+04    0.10683E-04   -0.76626E-05 12637   0.140E-02    0.216E-02
DAV:   4    -0.156104988869E+04    0.16079E-04   -0.59482E-05 11776   0.136E-02    0.725E-03
DAV:   5    -0.156104988633E+04    0.23622E-05   -0.16206E-05  6736   0.754E-03
  36 F= -.15610499E+04 E0= -.15610628E+04  d E =-.169754E-03
       N       E                     dE             d eps       ncg     rms          rms(c)
DAV:   1    -0.156104991825E+04   -0.29564E-04   -0.13869E-01 11284   0.487E-01    0.410E-02
DAV:   2    -0.156104999439E+04   -0.76131E-04   -0.11555E-03 16696   0.407E-02    0.321E-02
DAV:   3    -0.156104998359E+04    0.10795E-04   -0.85653E-05 13146   0.145E-02    0.226E-02
DAV:   4    -0.156104996918E+04    0.14409E-04   -0.67566E-05 12488   0.142E-02    0.871E-03
DAV:   5    -0.156104996587E+04    0.33155E-05   -0.19997E-05  7133   0.837E-03
  37 F= -.15610500E+04 E0= -.15610628E+04  d E =-.795383E-04
       N       E                     dE             d eps       ncg     rms          rms(c)
DAV:   1    -0.156104996789E+04    0.12920E-05   -0.73391E-04 11356   0.357E-02    0.335E-03
DAV:   2    -0.156104996733E+04    0.55599E-06   -0.95670E-06  6080   0.539E-03    0.390E-03
DAV:   3    -0.156104996622E+04    0.11183E-05   -0.32795E-06  6080   0.407E-03    0.167E-03
DAV:   4    -0.156104996548E+04    0.73872E-06   -0.14884E-06  5960   0.183E-03    0.115E-03
DAV:   5    -0.156104996504E+04    0.43529E-06   -0.73243E-07  5960   0.168E-03
  38 F= -.15610500E+04 E0= -.15610628E+04  d E =0.824793E-06
       N       E                     dE             d eps       ncg     rms          rms(c)
DAV:   1    -0.156104996370E+04    0.17811E-05   -0.11814E-04 11036   0.144E-02    0.152E-03
DAV:   2    -0.156104996457E+04   -0.87776E-06   -0.85799E-07  5798   0.164E-03    0.123E-03
DAV:   3    -0.156104996466E+04   -0.83070E-07   -0.24624E-07  5782   0.106E-03    0.797E-04
DAV:   4    -0.156104996508E+04   -0.42695E-06   -0.11016E-07  5750   0.534E-04    0.413E-04
DAV:   5    -0.156104996540E+04   -0.31906E-06   -0.57992E-08  5750   0.407E-04
  39 F= -.15610500E+04 E0= -.15610628E+04  d E =-.361009E-06
       N       E                     dE             d eps       ncg     rms          rms(c)
DAV:   1    -0.156104996582E+04   -0.73572E-06   -0.46652E-05 10330   0.900E-03    0.969E-04
DAV:   2    -0.156104996617E+04   -0.34999E-06   -0.74300E-07  5775   0.145E-03    0.869E-04
DAV:   3    -0.156104996618E+04   -0.12847E-07   -0.20206E-07  5774   0.930E-04    0.509E-04
DAV:   4    -0.156104996629E+04   -0.10920E-06   -0.89756E-08  5774   0.492E-04    0.347E-04
DAV:   5    -0.156104996639E+04   -0.10398E-06   -0.47514E-08  5750   0.414E-04
  40 F= -.15610500E+04 E0= -.15610628E+04  d E =-.992689E-06
       N       E                     dE             d eps       ncg     rms          rms(c)
DAV:   1    -0.156104996702E+04   -0.73142E-06   -0.26251E-05  6444   0.698E-03    0.790E-04
DAV:   2    -0.156104996668E+04    0.33831E-06   -0.14504E-06  5750   0.206E-03    0.534E-04
DAV:   3    -0.156104996658E+04    0.10083E-06   -0.25867E-07  5750   0.770E-04    0.468E-04
DAV:   4    -0.156104996628E+04    0.29823E-06   -0.97001E-08  5750   0.502E-04    0.227E-04
DAV:   5    -0.156104996612E+04    0.16181E-06   -0.48931E-08  5750   0.331E-04
  41 F= -.15610500E+04 E0= -.15610628E+04  d E =0.271737E-06
