       N       E                     dE             d eps       ncg     rms          rms(c)
DAV:   1     0.272371465957E+04    0.27237E+04   -0.31574E+05 12460   0.145E+03
DAV:   2    -0.118914909903E+04   -0.39129E+04   -0.37433E+04 14258   0.344E+02
DAV:   3    -0.170454732969E+04   -0.51540E+03   -0.49090E+03 19096   0.833E+01
DAV:   4    -0.173042299623E+04   -0.25876E+02   -0.25147E+02 17472   0.186E+01
DAV:   5    -0.173149725119E+04   -0.10743E+01   -0.10578E+01 19584   0.389E+00    0.467E+01
DAV:   6    -0.167176822509E+04    0.59729E+02   -0.13768E+02 18184   0.163E+01    0.245E+01
DAV:   7    -0.165567133053E+04    0.16097E+02   -0.85118E+01 18240   0.155E+01    0.148E+01
DAV:   8    -0.164568350352E+04    0.99878E+01   -0.43399E+01 17248   0.119E+01    0.395E+00
DAV:   9    -0.164532531439E+04    0.35819E+00   -0.11387E+01 17304   0.556E+00    0.206E+00
DAV:  10    -0.164532803962E+04   -0.27252E-02   -0.17444E+00 16296   0.187E+00    0.144E+00
DAV:  11    -0.164527868595E+04    0.49354E-01   -0.37814E-01 16392   0.837E-01    0.653E-01
DAV:  12    -0.164526781229E+04    0.10874E-01   -0.66507E-02 17240   0.433E-01    0.308E-01
DAV:  13    -0.164526488099E+04    0.29313E-02   -0.18870E-02 17400   0.254E-01    0.127E-01
DAV:  14    -0.164526480548E+04    0.75505E-04   -0.60379E-03 15912   0.110E-01    0.540E-02
DAV:  15    -0.164526485637E+04   -0.50885E-04   -0.10312E-03 15960   0.492E-02    0.278E-02
DAV:  16    -0.164526485211E+04    0.42628E-05   -0.19724E-04 16848   0.249E-02    0.155E-02
DAV:  17    -0.164526484065E+04    0.11458E-04   -0.59574E-05 13336   0.142E-02    0.813E-03
DAV:  18    -0.164526483407E+04    0.65773E-05   -0.22399E-05  8528   0.782E-03
   1 F= -.16452648E+04 E0= -.16452659E+04  d E =-.164526E+04
       N       E                     dE             d eps       ncg     rms          rms(c)
DAV:   1    -0.164595949303E+04   -0.69465E+00   -0.16975E+02 12460   0.163E+01    0.253E+00
DAV:   2    -0.164590827837E+04    0.51215E-01   -0.32479E+00 17056   0.271E+00    0.145E+00
DAV:   3    -0.164584367623E+04    0.64602E-01   -0.58808E-01 17000   0.124E+00    0.101E+00
DAV:   4    -0.164581781738E+04    0.25859E-01   -0.13731E-01 17032   0.688E-01    0.498E-01
DAV:   5    -0.164581029524E+04    0.75221E-02   -0.63610E-02 15888   0.449E-01    0.168E-01
DAV:   6    -0.164581049071E+04   -0.19547E-03   -0.12716E-02 16192   0.173E-01    0.117E-01
DAV:   7    -0.164581033770E+04    0.15301E-03   -0.22609E-03 15888   0.695E-02    0.685E-02
DAV:   8    -0.164581036657E+04   -0.28871E-04   -0.97630E-04 15976   0.470E-02    0.311E-02
DAV:   9    -0.164581034191E+04    0.24665E-04   -0.19957E-04 16024   0.279E-02    0.148E-02
DAV:  10    -0.164581033391E+04    0.79934E-05   -0.72788E-05 13648   0.112E-02
   2 F= -.16458103E+04 E0= -.16458166E+04  d E =-.545500E+00
       N       E                     dE             d eps       ncg     rms          rms(c)
DAV:   1    -0.164605201180E+04   -0.24167E+00   -0.16476E+01 12460   0.624E+00    0.202E+00
DAV:   2    -0.164586260944E+04    0.18940E+00   -0.31178E-01 14648   0.825E-01    0.983E-01
DAV:   3    -0.164581261786E+04    0.49992E-01   -0.13108E-01 14556   0.560E-01    0.364E-01
DAV:   4    -0.164580591236E+04    0.67055E-02   -0.39484E-02 15312   0.383E-01    0.105E-01
DAV:   5    -0.164580590112E+04    0.11235E-04   -0.99304E-03 15308   0.186E-01    0.604E-02
DAV:   6    -0.164580617444E+04   -0.27332E-03   -0.19758E-03 17240   0.618E-02    0.436E-02
DAV:   7    -0.164580628728E+04   -0.11284E-03   -0.31561E-04 16216   0.241E-02    0.233E-02
DAV:   8    -0.164580637150E+04   -0.84215E-04   -0.99460E-05 14240   0.142E-02    0.990E-03
DAV:   9    -0.164580639125E+04   -0.19753E-04   -0.26404E-05  8888   0.870E-03    0.447E-03
DAV:  10    -0.164580639860E+04   -0.73486E-05   -0.12323E-05  7624   0.545E-03
   3 F= -.16458064E+04 E0= -.16458076E+04  d E =0.393531E-02
       N       E                     dE             d eps       ncg     rms          rms(c)
DAV:   1    -0.164606422954E+04   -0.25784E+00   -0.71901E+00 12465   0.389E+00    0.111E+00
DAV:   2    -0.164601001313E+04    0.54216E-01   -0.11792E-01 15744   0.576E-01    0.579E-01
DAV:   3    -0.164599573525E+04    0.14278E-01   -0.55196E-02 16003   0.396E-01    0.332E-01
DAV:   4    -0.164598880211E+04    0.69331E-02   -0.27793E-02 15920   0.334E-01    0.748E-02
DAV:   5    -0.164598877166E+04    0.30445E-04   -0.67462E-03 15312   0.139E-01    0.508E-02
DAV:   6    -0.164598885129E+04   -0.79626E-04   -0.10034E-03 16400   0.456E-02    0.344E-02
DAV:   7    -0.164598887670E+04   -0.25405E-04   -0.17255E-04 15984   0.189E-02    0.201E-02
DAV:   8    -0.164598888961E+04   -0.12916E-04   -0.90072E-05 14576   0.139E-02    0.101E-02
DAV:   9    -0.164598887522E+04    0.14396E-04   -0.17700E-05  8152   0.686E-03    0.486E-03
DAV:  10    -0.164598887161E+04    0.36025E-05   -0.11033E-05  7512   0.456E-03
   4 F= -.16459889E+04 E0= -.16459931E+04  d E =-.182473E+00
       N       E                     dE             d eps       ncg     rms          rms(c)
DAV:   1    -0.164599367324E+04   -0.47980E-02   -0.88438E-01 12510   0.118E+00    0.146E-01
DAV:   2    -0.164599410426E+04   -0.43102E-03   -0.12387E-02 16896   0.187E-01    0.934E-02
DAV:   3    -0.164599391542E+04    0.18884E-03   -0.22095E-03 17749   0.823E-02    0.698E-02
DAV:   4    -0.164599381318E+04    0.10224E-03   -0.58391E-04 17312   0.432E-02    0.303E-02
DAV:   5    -0.164599380990E+04    0.32789E-05   -0.24397E-04 15096   0.232E-02    0.104E-02
DAV:   6    -0.164599380603E+04    0.38756E-05   -0.26610E-05  9000   0.901E-03
   5 F= -.16459938E+04 E0= -.16459980E+04  d E =-.493441E-02
       N       E                     dE             d eps       ncg     rms          rms(c)
DAV:   1    -0.164599470778E+04   -0.89787E-03   -0.16235E-01 12573   0.506E-01    0.610E-02
DAV:   2    -0.164599479090E+04   -0.83129E-04   -0.20365E-03 16360   0.841E-02    0.398E-02
DAV:   3    -0.164599475749E+04    0.33417E-04   -0.40088E-04 18686   0.341E-02    0.301E-02
DAV:   4    -0.164599473978E+04    0.17711E-04   -0.10756E-04 15776   0.186E-02    0.121E-02
DAV:   5    -0.164599474106E+04   -0.12819E-05   -0.33913E-05  9208   0.942E-03
   6 F= -.16459947E+04 E0= -.16459989E+04  d E =-.935033E-03
       N       E                     dE             d eps       ncg     rms          rms(c)
DAV:   1    -0.164599501204E+04   -0.27227E-03   -0.39778E-02 12570   0.262E-01    0.524E-02
DAV:   2    -0.164599488804E+04    0.12400E-03   -0.56399E-04 15688   0.445E-02    0.287E-02
DAV:   3    -0.164599484406E+04    0.43980E-04   -0.16643E-04 16190   0.241E-02    0.198E-02
DAV:   4    -0.164599480177E+04    0.42289E-04   -0.69677E-05 14712   0.161E-02    0.556E-03
DAV:   5    -0.164599479479E+04    0.69784E-05   -0.16230E-05  7304   0.695E-03
   7 F= -.16459948E+04 E0= -.16459991E+04  d E =-.537341E-04
       N       E                     dE             d eps       ncg     rms          rms(c)
DAV:   1    -0.164599506248E+04   -0.26070E-03   -0.10787E-02 12628   0.149E-01    0.421E-02
DAV:   2    -0.164599502609E+04    0.36382E-04   -0.14161E-04 15096   0.186E-02    0.215E-02
DAV:   3    -0.164599503194E+04   -0.58466E-05   -0.61355E-05 13750   0.118E-02    0.768E-03
DAV:   4    -0.164599504073E+04   -0.87884E-05   -0.14968E-05  7872   0.854E-03    0.210E-03
DAV:   5    -0.164599504319E+04   -0.24562E-05   -0.47503E-06  6952   0.453E-03
   8 F= -.16459950E+04 E0= -.16459993E+04  d E =-.248392E-03
       N       E                     dE             d eps       ncg     rms          rms(c)
DAV:   1    -0.164599511755E+04   -0.76820E-04   -0.73586E-03 12610   0.109E-01    0.156E-02
DAV:   2    -0.164599510909E+04    0.84621E-05   -0.79340E-05 15072   0.162E-02    0.989E-03
DAV:   3    -0.164599510369E+04    0.53980E-05   -0.14604E-05  8475   0.727E-03    0.709E-03
DAV:   4    -0.164599509543E+04    0.82564E-05   -0.89610E-06  6992   0.493E-03    0.145E-03
DAV:   5    -0.164599509514E+04    0.28911E-06   -0.25661E-06  6800   0.333E-03
   9 F= -.16459951E+04 E0= -.16459993E+04  d E =-.519578E-04
       N       E                     dE             d eps       ncg     rms          rms(c)
DAV:   1    -0.164599511894E+04   -0.23510E-04   -0.33002E-03 12602   0.723E-02    0.838E-03
DAV:   2    -0.164599512069E+04   -0.17435E-05   -0.23965E-05  9136   0.993E-03    0.573E-03
DAV:   3    -0.164599512092E+04   -0.23518E-06   -0.63565E-06  7032   0.585E-03    0.411E-03
DAV:   4    -0.164599512204E+04   -0.11192E-05   -0.46438E-06  6680   0.383E-03    0.666E-04
DAV:   5    -0.164599512221E+04   -0.16818E-06   -0.20405E-06  6680   0.272E-03
  10 F= -.16459951E+04 E0= -.16459994E+04  d E =-.270655E-04
       N       E                     dE             d eps       ncg     rms          rms(c)
DAV:   1    -0.164599514203E+04   -0.19989E-04   -0.54566E-03 12560   0.924E-02    0.985E-03
DAV:   2    -0.164599514488E+04   -0.28474E-05   -0.43474E-05 11024   0.112E-02    0.714E-03
DAV:   3    -0.164599514475E+04    0.12334E-06   -0.89246E-06  7075   0.597E-03    0.510E-03
DAV:   4    -0.164599514513E+04   -0.37187E-06   -0.61328E-06  6680   0.427E-03    0.103E-03
DAV:   5    -0.164599514519E+04   -0.62435E-07   -0.21604E-06  6680   0.281E-03
  11 F= -.16459951E+04 E0= -.16459994E+04  d E =-.229789E-04
       N       E                     dE             d eps       ncg     rms          rms(c)
DAV:   1    -0.164599515432E+04   -0.91957E-05   -0.38058E-04 12618   0.279E-02    0.774E-03
DAV:   2    -0.164599514493E+04    0.93955E-05   -0.52790E-06  6665   0.366E-03    0.390E-03
DAV:   3    -0.164599513927E+04    0.56601E-05   -0.27259E-06  6607   0.271E-03    0.139E-03
DAV:   4    -0.164599513709E+04    0.21779E-05   -0.10865E-06  6593   0.218E-03    0.515E-04
DAV:   5    -0.164599513652E+04    0.56941E-06   -0.49495E-07  6593   0.137E-03
  12 F= -.16459951E+04 E0= -.16459994E+04  d E =0.866968E-05
       N       E                     dE             d eps       ncg     rms          rms(c)
DAV:   1    -0.164599514296E+04   -0.58697E-05   -0.82805E-04 12592   0.374E-02    0.680E-03
DAV:   2    -0.164599514687E+04   -0.39156E-05   -0.61537E-06  6491   0.411E-03    0.390E-03
DAV:   3    -0.164599515103E+04   -0.41539E-05   -0.29668E-06  6478   0.263E-03    0.105E-03
DAV:   4    -0.164599515243E+04   -0.14026E-05   -0.10781E-06  6491   0.189E-03    0.490E-04
DAV:   5    -0.164599515268E+04   -0.24665E-06   -0.49899E-07  6475   0.133E-03
  13 F= -.16459952E+04 E0= -.16459994E+04  d E =-.161579E-04
       N       E                     dE             d eps       ncg     rms          rms(c)
DAV:   1    -0.164599515665E+04   -0.42240E-05   -0.38049E-04 12488   0.245E-02    0.293E-03
DAV:   2    -0.164599515617E+04    0.48214E-06   -0.26686E-06  6443   0.272E-03    0.201E-03
DAV:   3    -0.164599515555E+04    0.62068E-06   -0.10641E-06  6443   0.157E-03    0.473E-04
DAV:   4    -0.164599515543E+04    0.11684E-06   -0.50740E-07  6443   0.115E-03    0.202E-04
DAV:   5    -0.164599515549E+04   -0.53562E-07   -0.28331E-07  6443   0.905E-04
  14 F= -.16459952E+04 E0= -.16459994E+04  d E =-.281122E-05
       N       E                     dE             d eps       ncg     rms          rms(c)
DAV:   1    -0.164599515864E+04   -0.32108E-05   -0.46965E-04 12528   0.271E-02    0.293E-03
DAV:   2    -0.164599515878E+04   -0.13559E-06   -0.29472E-06  6443   0.288E-03    0.209E-03
DAV:   3    -0.164599515878E+04    0.49022E-09   -0.11650E-06  6427   0.163E-03    0.365E-04
DAV:   4    -0.164599515883E+04   -0.49342E-07   -0.52334E-07  6428   0.118E-03    0.210E-04
DAV:   5    -0.164599515885E+04   -0.25860E-07   -0.29565E-07  6420   0.912E-04
  15 F= -.16459952E+04 E0= -.16459994E+04  d E =-.336750E-05
       N       E                     dE             d eps       ncg     rms          rms(c)
DAV:   1    -0.164599516030E+04   -0.14694E-05   -0.11986E-03 12560   0.434E-02    0.496E-03
DAV:   2    -0.164599516236E+04   -0.20595E-05   -0.71512E-06  6698   0.449E-03    0.341E-03
DAV:   3    -0.164599516409E+04   -0.17323E-05   -0.26915E-06  6530   0.251E-03    0.933E-04
DAV:   4    -0.164599516480E+04   -0.71170E-06   -0.12144E-06  6491   0.189E-03    0.376E-04
DAV:   5    -0.164599516475E+04    0.53812E-07   -0.65118E-07  6478   0.142E-03
  16 F= -.16459952E+04 E0= -.16459994E+04  d E =-.589322E-05
       N       E                     dE             d eps       ncg     rms          rms(c)
DAV:   1    -0.164599516718E+04   -0.23823E-05   -0.12409E-04 12312   0.148E-02    0.299E-03
DAV:   2    -0.164599516424E+04    0.29447E-05   -0.84620E-07  6380   0.152E-03    0.163E-03
DAV:   3    -0.164599516213E+04    0.21121E-05   -0.39355E-07  6380   0.965E-04    0.549E-04
DAV:   4    -0.164599516133E+04    0.79909E-06   -0.12597E-07  6380   0.705E-04    0.204E-04
DAV:   5    -0.164599516117E+04    0.15975E-06   -0.44335E-08  6380   0.426E-04
  17 F= -.16459952E+04 E0= -.16459994E+04  d E =0.357956E-05
       N       E                     dE             d eps       ncg     rms          rms(c)
DAV:   1    -0.164599516212E+04   -0.78786E-06   -0.20522E-04 12336   0.180E-02    0.195E-03
DAV:   2    -0.164599516264E+04   -0.52222E-06   -0.11691E-06  6380   0.183E-03    0.135E-03
DAV:   3    -0.164599516322E+04   -0.58258E-06   -0.42195E-07  6380   0.960E-04    0.202E-04
DAV:   4    -0.164599516328E+04   -0.63061E-07   -0.16227E-07  6380   0.642E-04    0.123E-04
DAV:   5    -0.164599516327E+04    0.17100E-07   -0.86512E-08  6380   0.487E-04
  18 F= -.16459952E+04 E0= -.16459994E+04  d E =-.209837E-05
       N       E                     dE             d eps       ncg     rms          rms(c)
DAV:   1    -0.164599516419E+04   -0.90920E-06   -0.16509E-04 12328   0.161E-02    0.174E-03
DAV:   2    -0.164599516425E+04   -0.54393E-07   -0.10715E-06  6380   0.175E-03    0.124E-03
DAV:   3    -0.164599516425E+04   -0.90222E-09   -0.40975E-07  6380   0.964E-04    0.182E-04
DAV:   4    -0.164599516427E+04   -0.17681E-07   -0.17600E-07  6380   0.673E-04    0.117E-04
DAV:   5    -0.164599516427E+04   -0.74920E-08   -0.98044E-08  6380   0.522E-04
  19 F= -.16459952E+04 E0= -.16459994E+04  d E =-.100677E-05
