       N       E                     dE             d eps       ncg     rms          rms(c)
DAV:   1     0.218295590274E+04    0.21830E+04   -0.28916E+05 11592   0.143E+03
DAV:   2    -0.119647378865E+04   -0.33794E+04   -0.32440E+04 13444   0.295E+02
DAV:   3    -0.162319802627E+04   -0.42672E+03   -0.39339E+03 17928   0.818E+01
DAV:   4    -0.164786938509E+04   -0.24671E+02   -0.22948E+02 16312   0.172E+01
DAV:   5    -0.164894095343E+04   -0.10716E+01   -0.10513E+01 17824   0.418E+00    0.410E+01
DAV:   6    -0.160565551312E+04    0.43285E+02   -0.12534E+02 17744   0.151E+01    0.227E+01
DAV:   7    -0.159435696798E+04    0.11299E+02   -0.92115E+01 17216   0.153E+01    0.169E+01
DAV:   8    -0.158458119236E+04    0.97758E+01   -0.54159E+01 16960   0.123E+01    0.939E+00
DAV:   9    -0.157974167192E+04    0.48395E+01   -0.21616E+01 16832   0.790E+00    0.305E+00
DAV:  10    -0.157962896671E+04    0.11271E+00   -0.47567E+00 16616   0.301E+00    0.160E+00
DAV:  11    -0.157962131029E+04    0.76564E-02   -0.59042E-01 15184   0.109E+00    0.106E+00
DAV:  12    -0.157960756189E+04    0.13748E-01   -0.19374E-01 15336   0.734E-01    0.668E-01
DAV:  13    -0.157959151190E+04    0.16050E-01   -0.64100E-02 15584   0.465E-01    0.374E-01
DAV:  14    -0.157958637475E+04    0.51371E-02   -0.23835E-02 15640   0.215E-01    0.155E-01
DAV:  15    -0.157958592350E+04    0.45125E-03   -0.67732E-03 16352   0.128E-01    0.832E-02
DAV:  16    -0.157958575085E+04    0.17265E-03   -0.22286E-03 15744   0.742E-02    0.430E-02
DAV:  17    -0.157958572042E+04    0.30426E-04   -0.57279E-04 14584   0.375E-02    0.231E-02
DAV:  18    -0.157958570373E+04    0.16695E-04   -0.13653E-04 14520   0.203E-02    0.146E-02
DAV:  19    -0.157958569061E+04    0.13117E-04   -0.42193E-05  9584   0.122E-02    0.756E-03
DAV:  20    -0.157958568369E+04    0.69225E-05   -0.16049E-05  7152   0.659E-03
   1 F= -.15795857E+04 E0= -.15795883E+04  d E =-.157959E+04
       N       E                     dE             d eps       ncg     rms          rms(c)
DAV:   1    -0.158436499124E+04   -0.47793E+01   -0.15547E+03 11592   0.598E+01    0.218E+01
DAV:   2    -0.156568568059E+04    0.18679E+02   -0.99939E+01 18160   0.133E+01    0.124E+01
DAV:   3    -0.156002820120E+04    0.56575E+01   -0.53197E+01 19560   0.981E+00    0.835E+00
DAV:   4    -0.155786590945E+04    0.21623E+01   -0.16771E+01 19224   0.635E+00    0.625E+00
DAV:   5    -0.155595318179E+04    0.19127E+01   -0.10767E+01 18792   0.456E+00    0.238E+00
DAV:   6    -0.155577299154E+04    0.18019E+00   -0.26123E+00 17272   0.219E+00    0.132E+00
DAV:   7    -0.155574981171E+04    0.23180E-01   -0.43916E-01 15864   0.971E-01    0.926E-01
DAV:   8    -0.155574257316E+04    0.72386E-02   -0.14443E-01 17680   0.458E-01    0.489E-01
DAV:   9    -0.155574805943E+04   -0.54863E-02   -0.64439E-02 17952   0.285E-01    0.274E-01
DAV:  10    -0.155574989530E+04   -0.18359E-02   -0.18803E-02 16984   0.216E-01    0.221E-01
DAV:  11    -0.155574838735E+04    0.15079E-02   -0.88991E-03 17200   0.145E-01    0.959E-02
DAV:  12    -0.155574845697E+04   -0.69610E-04   -0.44886E-03 17864   0.795E-02    0.557E-02
DAV:  13    -0.155574866202E+04   -0.20506E-03   -0.84662E-04 15696   0.387E-02    0.365E-02
DAV:  14    -0.155574870407E+04   -0.42049E-04   -0.31032E-04 17624   0.261E-02    0.215E-02
DAV:  15    -0.155574871137E+04   -0.72958E-05   -0.12033E-04 14480   0.149E-02    0.108E-02
DAV:  16    -0.155574871787E+04   -0.65073E-05   -0.28146E-05  7448   0.823E-03
   2 F= -.15557487E+04 E0= -.15557535E+04  d E =0.238370E+02
       N       E                     dE             d eps       ncg     rms          rms(c)
DAV:   1    -0.159899157398E+04   -0.43243E+02   -0.74008E+02 11592   0.455E+01    0.152E+01
DAV:   2    -0.158885413352E+04    0.10137E+02   -0.27713E+01 16292   0.823E+00    0.712E+00
DAV:   3    -0.158714415868E+04    0.17100E+01   -0.13693E+01 16344   0.539E+00    0.525E+00
DAV:   4    -0.158601056314E+04    0.11336E+01   -0.58469E+00 17664   0.435E+00    0.317E+00
DAV:   5    -0.158548822775E+04    0.52234E+00   -0.30805E+00 17224   0.289E+00    0.117E+00
DAV:   6    -0.158545174993E+04    0.36478E-01   -0.74138E-01 15656   0.129E+00    0.641E-01
DAV:   7    -0.158545696986E+04   -0.52199E-02   -0.11374E-01 15816   0.498E-01    0.481E-01
DAV:   8    -0.158545958309E+04   -0.26132E-02   -0.29694E-02 15856   0.242E-01    0.272E-01
DAV:   9    -0.158546755762E+04   -0.79745E-02   -0.26308E-02 16576   0.191E-01    0.180E-01
DAV:  10    -0.158546759332E+04   -0.35706E-04   -0.48760E-03 16344   0.123E-01    0.117E-01
DAV:  11    -0.158546738066E+04    0.21266E-03   -0.31042E-03 17488   0.768E-02    0.461E-02
DAV:  12    -0.158546767635E+04   -0.29570E-03   -0.12464E-03 16448   0.460E-02    0.401E-02
DAV:  13    -0.158546779154E+04   -0.11518E-03   -0.26022E-04 14816   0.249E-02    0.250E-02
DAV:  14    -0.158546779044E+04    0.10987E-05   -0.90503E-05 13408   0.150E-02
   3 F= -.15854678E+04 E0= -.15854543E+04  d E =-.297191E+02
       N       E                     dE             d eps       ncg     rms          rms(c)
DAV:   1    -0.158561144757E+04   -0.14366E+00   -0.16596E+01 11592   0.539E+00    0.718E-01
DAV:   2    -0.158561971472E+04   -0.82672E-02   -0.28197E-01 16896   0.683E-01    0.487E-01
DAV:   3    -0.158561450321E+04    0.52115E-02   -0.56514E-02 18840   0.392E-01    0.367E-01
DAV:   4    -0.158561080407E+04    0.36991E-02   -0.18555E-02 18760   0.226E-01    0.230E-01
DAV:   5    -0.158560930718E+04    0.14969E-02   -0.11336E-02 15984   0.158E-01    0.966E-02
DAV:   6    -0.158560914625E+04    0.16092E-03   -0.32460E-03 16288   0.949E-02    0.604E-02
DAV:   7    -0.158560904764E+04    0.98614E-04   -0.91029E-04 16152   0.489E-02    0.379E-02
DAV:   8    -0.158560901485E+04    0.32786E-04   -0.25623E-04 16328   0.233E-02    0.222E-02
DAV:   9    -0.158560901339E+04    0.14617E-05   -0.93837E-05 14208   0.154E-02
   4 F= -.15856090E+04 E0= -.15855968E+04  d E =-.141223E+00
       N       E                     dE             d eps       ncg     rms          rms(c)
DAV:   1    -0.158563514347E+04   -0.26129E-01   -0.30531E+00 11592   0.231E+00    0.365E-01
DAV:   2    -0.158563654955E+04   -0.14061E-02   -0.69610E-02 17760   0.389E-01    0.278E-01
DAV:   3    -0.158563286337E+04    0.36862E-02   -0.22639E-02 18664   0.251E-01    0.172E-01
DAV:   4    -0.158563193738E+04    0.92599E-03   -0.47114E-03 18848   0.110E-01    0.117E-01
DAV:   5    -0.158563147989E+04    0.45749E-03   -0.25053E-03 16288   0.739E-02    0.577E-02
DAV:   6    -0.158563139124E+04    0.88653E-04   -0.95144E-04 15832   0.501E-02    0.342E-02
DAV:   7    -0.158563134815E+04    0.43087E-04   -0.27550E-04 15648   0.278E-02    0.196E-02
DAV:   8    -0.158563134962E+04   -0.14702E-05   -0.67730E-05 12704   0.119E-02
   5 F= -.15856313E+04 E0= -.15856189E+04  d E =-.223362E-01
       N       E                     dE             d eps       ncg     rms          rms(c)
DAV:   1    -0.158563939747E+04   -0.80493E-02   -0.49627E-01 11712   0.101E+00    0.227E-01
DAV:   2    -0.158563778704E+04    0.16104E-02   -0.87463E-03 16616   0.127E-01    0.120E-01
DAV:   3    -0.158563763331E+04    0.15373E-03   -0.35247E-03 19048   0.962E-02    0.986E-02
DAV:   4    -0.158563720400E+04    0.42931E-03   -0.17035E-03 18704   0.699E-02    0.481E-02
DAV:   5    -0.158563718138E+04    0.22627E-04   -0.81212E-04 16040   0.417E-02    0.204E-02
DAV:   6    -0.158563717681E+04    0.45672E-05   -0.13551E-04 14440   0.194E-02    0.144E-02
DAV:   7    -0.158563717190E+04    0.49116E-05   -0.28239E-05  7568   0.920E-03
   6 F= -.15856372E+04 E0= -.15856253E+04  d E =-.582227E-02
       N       E                     dE             d eps       ncg     rms          rms(c)
DAV:   1    -0.158564398220E+04   -0.68054E-02   -0.40023E-01 11676   0.856E-01    0.164E-01
DAV:   2    -0.158564372821E+04    0.25399E-03   -0.10169E-02 17816   0.156E-01    0.120E-01
DAV:   3    -0.158564300995E+04    0.71826E-03   -0.41696E-03 18744   0.109E-01    0.741E-02
DAV:   4    -0.158564278072E+04    0.22924E-03   -0.94589E-04 17616   0.489E-02    0.471E-02
DAV:   5    -0.158564266439E+04    0.11633E-03   -0.48108E-04 15880   0.334E-02    0.221E-02
DAV:   6    -0.158564263747E+04    0.26924E-04   -0.15598E-04 15184   0.206E-02    0.130E-02
DAV:   7    -0.158564263049E+04    0.69807E-05   -0.33393E-05  8616   0.110E-02
   7 F= -.15856426E+04 E0= -.15856305E+04  d E =-.545859E-02
       N       E                     dE             d eps       ncg     rms          rms(c)
DAV:   1    -0.158564470086E+04   -0.20634E-02   -0.23248E-01 11676   0.629E-01    0.727E-02
DAV:   2    -0.158564499996E+04   -0.29910E-03   -0.32621E-03 17568   0.858E-02    0.680E-02
DAV:   3    -0.158564479114E+04    0.20882E-03   -0.95188E-04 18402   0.545E-02    0.412E-02
DAV:   4    -0.158564477086E+04    0.20280E-04   -0.20636E-04 16272   0.216E-02    0.242E-02
DAV:   5    -0.158564476635E+04    0.45096E-05   -0.12127E-04 14456   0.173E-02    0.928E-03
DAV:   6    -0.158564476460E+04    0.17493E-05   -0.27118E-05  8320   0.105E-02
   8 F= -.15856448E+04 E0= -.15856328E+04  d E =-.213411E-02
       N       E                     dE             d eps       ncg     rms          rms(c)
DAV:   1    -0.158564577119E+04   -0.10048E-02   -0.74704E-02 11730   0.367E-01    0.647E-02
DAV:   2    -0.158564569586E+04    0.75336E-04   -0.14421E-03 17488   0.590E-02    0.463E-02
DAV:   3    -0.158564559331E+04    0.10254E-03   -0.58893E-04 18714   0.417E-02    0.303E-02
DAV:   4    -0.158564554506E+04    0.48257E-04   -0.14216E-04 15776   0.190E-02    0.186E-02
DAV:   5    -0.158564551671E+04    0.28348E-04   -0.70173E-05 12856   0.136E-02    0.875E-03
DAV:   6    -0.158564550881E+04    0.78963E-05   -0.19504E-05  7472   0.895E-03
   9 F= -.15856455E+04 E0= -.15856335E+04  d E =-.744214E-03
       N       E                     dE             d eps       ncg     rms          rms(c)
DAV:   1    -0.158564617817E+04   -0.66147E-03   -0.38398E-02 11730   0.263E-01    0.422E-02
DAV:   2    -0.158564618284E+04   -0.46610E-05   -0.45711E-04 16752   0.300E-02    0.264E-02
DAV:   3    -0.158564617804E+04    0.47914E-05   -0.13775E-04 16476   0.209E-02    0.208E-02
DAV:   4    -0.158564617524E+04    0.28042E-05   -0.50187E-05 10576   0.121E-02    0.889E-03
DAV:   5    -0.158564618322E+04   -0.79797E-05   -0.18600E-05  7154   0.802E-03
  10 F= -.15856462E+04 E0= -.15856342E+04  d E =-.674408E-03
       N       E                     dE             d eps       ncg     rms          rms(c)
DAV:   1    -0.158564676120E+04   -0.58596E-03   -0.53923E-02 11700   0.302E-01    0.340E-02
DAV:   2    -0.158564678959E+04   -0.28393E-04   -0.63323E-04 17328   0.368E-02    0.289E-02
DAV:   3    -0.158564675575E+04    0.33839E-04   -0.16247E-04 16692   0.230E-02    0.194E-02
DAV:   4    -0.158564674244E+04    0.13316E-04   -0.32590E-05  8576   0.979E-03    0.117E-02
DAV:   5    -0.158564673347E+04    0.89672E-05   -0.18704E-05  7008   0.838E-03
  11 F= -.15856467E+04 E0= -.15856348E+04  d E =-.550250E-03
       N       E                     dE             d eps       ncg     rms          rms(c)
DAV:   1    -0.158564716316E+04   -0.42072E-03   -0.52814E-02 11700   0.299E-01    0.308E-02
DAV:   2    -0.158564720443E+04   -0.41277E-04   -0.49724E-04 16792   0.299E-02    0.240E-02
DAV:   3    -0.158564719466E+04    0.97776E-05   -0.71851E-05 13234   0.164E-02    0.183E-02
DAV:   4    -0.158564719675E+04   -0.20961E-05   -0.33817E-05  8096   0.939E-03    0.541E-03
DAV:   5    -0.158564719922E+04   -0.24682E-05   -0.88535E-06  6680   0.664E-03
  12 F= -.15856472E+04 E0= -.15856353E+04  d E =-.465750E-03
       N       E                     dE             d eps       ncg     rms          rms(c)
DAV:   1    -0.158564737877E+04   -0.18202E-03   -0.59056E-03 11748   0.106E-01    0.221E-02
DAV:   2    -0.158564734612E+04    0.32658E-04   -0.10006E-04 14288   0.150E-02    0.123E-02
DAV:   3    -0.158564733638E+04    0.97404E-05   -0.33162E-05  9112   0.110E-02    0.900E-03
DAV:   4    -0.158564732628E+04    0.10093E-04   -0.10400E-05  6960   0.743E-03    0.501E-03
DAV:   5    -0.158564731935E+04    0.69378E-05   -0.58594E-06  6288   0.473E-03
  13 F= -.15856473E+04 E0= -.15856354E+04  d E =-.120126E-03
       N       E                     dE             d eps       ncg     rms          rms(c)
DAV:   1    -0.158564759000E+04   -0.26371E-03   -0.25088E-02 11712   0.206E-01    0.207E-02
DAV:   2    -0.158564760912E+04   -0.19124E-04   -0.22184E-04 16776   0.193E-02    0.159E-02
DAV:   3    -0.158564760640E+04    0.27182E-05   -0.18854E-05  7956   0.958E-03    0.125E-02
DAV:   4    -0.158564760861E+04   -0.22113E-05   -0.17065E-05  6528   0.707E-03    0.297E-03
DAV:   5    -0.158564760963E+04   -0.10180E-05   -0.47250E-06  6268   0.491E-03
  14 F= -.15856476E+04 E0= -.15856357E+04  d E =-.290285E-03
       N       E                     dE             d eps       ncg     rms          rms(c)
DAV:   1    -0.158564788707E+04   -0.27846E-03   -0.32590E-02 11700   0.234E-01    0.227E-02
DAV:   2    -0.158564789762E+04   -0.10543E-04   -0.29448E-04 16968   0.225E-02    0.176E-02
DAV:   3    -0.158564789037E+04    0.72444E-05   -0.29544E-05  8778   0.113E-02    0.138E-02
DAV:   4    -0.158564788196E+04    0.84078E-05   -0.18107E-05  6840   0.784E-03    0.616E-03
DAV:   5    -0.158564787865E+04    0.33194E-05   -0.85379E-06  6320   0.628E-03
  15 F= -.15856479E+04 E0= -.15856360E+04  d E =-.269014E-03
       N       E                     dE             d eps       ncg     rms          rms(c)
DAV:   1    -0.158564797225E+04   -0.90288E-04   -0.51890E-03 11736   0.960E-02    0.141E-02
DAV:   2    -0.158564797976E+04   -0.75028E-05   -0.49977E-05 10912   0.101E-02    0.823E-03
DAV:   3    -0.158564798323E+04   -0.34782E-05   -0.12417E-05  6898   0.668E-03    0.599E-03
DAV:   4    -0.158564798652E+04   -0.32849E-05   -0.50350E-06  6216   0.486E-03    0.304E-03
DAV:   5    -0.158564798947E+04   -0.29489E-05   -0.28386E-06  6048   0.321E-03
  16 F= -.15856480E+04 E0= -.15856361E+04  d E =-.110822E-03
       N       E                     dE             d eps       ncg     rms          rms(c)
DAV:   1    -0.158564815468E+04   -0.16816E-03   -0.12063E-02 11712   0.143E-01    0.160E-02
DAV:   2    -0.158564815082E+04    0.38612E-05   -0.11836E-04 15976   0.140E-02    0.114E-02
DAV:   3    -0.158564814647E+04    0.43498E-05   -0.13246E-05  7460   0.751E-03    0.878E-03
DAV:   4    -0.158564814099E+04    0.54768E-05   -0.76365E-06  6256   0.574E-03    0.468E-03
DAV:   5    -0.158564813744E+04    0.35489E-05   -0.42830E-06  6048   0.433E-03
  17 F= -.15856481E+04 E0= -.15856362E+04  d E =-.147976E-03
       N       E                     dE             d eps       ncg     rms          rms(c)
DAV:   1    -0.158564828894E+04   -0.14795E-03   -0.15333E-02 11700   0.160E-01    0.150E-02
DAV:   2    -0.158564830012E+04   -0.11180E-04   -0.13092E-04 16216   0.144E-02    0.115E-02
DAV:   3    -0.158564829970E+04    0.42294E-06   -0.84600E-06  7042   0.617E-03    0.867E-03
DAV:   4    -0.158564830046E+04   -0.76463E-06   -0.81941E-06  6232   0.541E-03    0.223E-03
DAV:   5    -0.158564830082E+04   -0.36214E-06   -0.23841E-06  6048   0.349E-03
  18 F= -.15856483E+04 E0= -.15856364E+04  d E =-.163379E-03
       N       E                     dE             d eps       ncg     rms          rms(c)
DAV:   1    -0.158564846083E+04   -0.16037E-03   -0.18534E-02 11700   0.177E-01    0.183E-02
DAV:   2    -0.158564845903E+04    0.18053E-05   -0.16975E-04 16512   0.165E-02    0.130E-02
DAV:   3    -0.158564845363E+04    0.54029E-05   -0.14620E-05  7522   0.760E-03    0.966E-03
DAV:   4    -0.158564844760E+04    0.60230E-05   -0.89621E-06  6520   0.659E-03    0.512E-03
DAV:   5    -0.158564844374E+04    0.38647E-05   -0.51007E-06  6112   0.490E-03
  19 F= -.15856484E+04 E0= -.15856366E+04  d E =-.142915E-03
       N       E                     dE             d eps       ncg     rms          rms(c)
DAV:   1    -0.158564847699E+04   -0.29388E-04   -0.10038E-03 11736   0.444E-02    0.942E-03
DAV:   2    -0.158564848208E+04   -0.50909E-05   -0.10983E-05  6048   0.556E-03    0.499E-03
DAV:   3    -0.158564848497E+04   -0.28913E-05   -0.48275E-06  6042   0.470E-03    0.384E-03
DAV:   4    -0.158564848760E+04   -0.26291E-05   -0.25403E-06  6048   0.343E-03    0.159E-03
DAV:   5    -0.158564848952E+04   -0.19151E-05   -0.13640E-06  6048   0.202E-03
  20 F= -.15856485E+04 E0= -.15856366E+04  d E =-.457793E-04
       N       E                     dE             d eps       ncg     rms          rms(c)
DAV:   1    -0.158564860123E+04   -0.11362E-03   -0.10676E-02 11706   0.134E-01    0.130E-02
DAV:   2    -0.158564860345E+04   -0.22190E-05   -0.92534E-05 15072   0.120E-02    0.977E-03
DAV:   3    -0.158564860107E+04    0.23759E-05   -0.79913E-06  6692   0.525E-03    0.683E-03
DAV:   4    -0.158564859828E+04    0.27919E-05   -0.51474E-06  6144   0.481E-03    0.280E-03
DAV:   5    -0.158564859733E+04    0.94983E-06   -0.22519E-06  6042   0.348E-03
  21 F= -.15856486E+04 E0= -.15856367E+04  d E =-.107811E-03
       N       E                     dE             d eps       ncg     rms          rms(c)
DAV:   1    -0.158564870318E+04   -0.10491E-03   -0.13710E-02 11688   0.152E-01    0.142E-02
DAV:   2    -0.158564871419E+04   -0.11009E-04   -0.11794E-04 16024   0.134E-02    0.106E-02
DAV:   3    -0.158564871469E+04   -0.49307E-06   -0.79456E-06  6794   0.536E-03    0.671E-03
DAV:   4    -0.158564871617E+04   -0.14815E-05   -0.53794E-06  6296   0.516E-03    0.259E-03
DAV:   5    -0.158564871662E+04   -0.45147E-06   -0.20635E-06  6048   0.331E-03
  22 F= -.15856487E+04 E0= -.15856369E+04  d E =-.119290E-03
       N       E                     dE             d eps       ncg     rms          rms(c)
DAV:   1    -0.158564875313E+04   -0.36966E-04   -0.10402E-03 11736   0.436E-02    0.780E-03
DAV:   2    -0.158564874481E+04    0.83204E-05   -0.10083E-05  6048   0.537E-03    0.420E-03
DAV:   3    -0.158564874242E+04    0.23915E-05   -0.41562E-06  6048   0.441E-03    0.318E-03
DAV:   4    -0.158564873964E+04    0.27816E-05   -0.19404E-06  6048   0.307E-03    0.154E-03
DAV:   5    -0.158564873802E+04    0.16181E-05   -0.11475E-06  6048   0.192E-03
  23 F= -.15856487E+04 E0= -.15856369E+04  d E =-.214034E-04
       N       E                     dE             d eps       ncg     rms          rms(c)
DAV:   1    -0.158564880567E+04   -0.66025E-04   -0.63372E-03 11694   0.103E-01    0.103E-02
DAV:   2    -0.158564881090E+04   -0.52306E-05   -0.48749E-05 11024   0.925E-03    0.757E-03
DAV:   3    -0.158564881216E+04   -0.12651E-05   -0.88353E-06  6214   0.506E-03    0.457E-03
DAV:   4    -0.158564881363E+04   -0.14719E-05   -0.39880E-06  6048   0.406E-03    0.187E-03
DAV:   5    -0.158564881406E+04   -0.42892E-06   -0.19179E-06  6042   0.279E-03
  24 F= -.15856488E+04 E0= -.15856370E+04  d E =-.760394E-04
       N       E                     dE             d eps       ncg     rms          rms(c)
DAV:   1    -0.158564888438E+04   -0.70751E-04   -0.72347E-03 11688   0.110E-01    0.107E-02
DAV:   2    -0.158564888423E+04    0.15293E-06   -0.60606E-05 12000   0.996E-03    0.795E-03
DAV:   3    -0.158564888240E+04    0.18307E-05   -0.87538E-06  6320   0.522E-03    0.541E-03
DAV:   4    -0.158564887999E+04    0.24115E-05   -0.39105E-06  6048   0.406E-03    0.235E-03
DAV:   5    -0.158564887902E+04    0.96719E-06   -0.19267E-06  6048   0.295E-03
  25 F= -.15856489E+04 E0= -.15856370E+04  d E =-.649593E-04
       N       E                     dE             d eps       ncg     rms          rms(c)
DAV:   1    -0.158564890494E+04   -0.24950E-04   -0.14072E-03 11724   0.492E-02    0.628E-03
DAV:   2    -0.158564890877E+04   -0.38293E-05   -0.10018E-05  6038   0.495E-03    0.385E-03
DAV:   3    -0.158564891056E+04   -0.17886E-05   -0.39487E-06  6024   0.346E-03    0.277E-03
DAV:   4    -0.158564891226E+04   -0.17033E-05   -0.20758E-06  6030   0.271E-03    0.134E-03
DAV:   5    -0.158564891337E+04   -0.11146E-05   -0.12225E-06  6030   0.189E-03
  26 F= -.15856489E+04 E0= -.15856371E+04  d E =-.343532E-04
       N       E                     dE             d eps       ncg     rms          rms(c)
DAV:   1    -0.158564896267E+04   -0.50412E-04   -0.38513E-03 11700   0.803E-02    0.830E-03
DAV:   2    -0.158564896016E+04    0.25114E-05   -0.23354E-05  8256   0.749E-03    0.577E-03
DAV:   3    -0.158564895893E+04    0.12335E-05   -0.83971E-06  6148   0.466E-03    0.383E-03
DAV:   4    -0.158564895725E+04    0.16724E-05   -0.45737E-06  6048   0.387E-03    0.173E-03
DAV:   5    -0.158564895674E+04    0.51509E-06   -0.26408E-06  6030   0.286E-03
  27 F= -.15856490E+04 E0= -.15856371E+04  d E =-.433651E-04
       N       E                     dE             d eps       ncg     rms          rms(c)
DAV:   1    -0.158564899815E+04   -0.40892E-04   -0.42993E-03 11688   0.848E-02    0.850E-03
DAV:   2    -0.158564900228E+04   -0.41352E-05   -0.29836E-05  8384   0.802E-03    0.606E-03
DAV:   3    -0.158564900390E+04   -0.16224E-05   -0.91382E-06  6130   0.490E-03    0.394E-03
DAV:   4    -0.158564900556E+04   -0.16609E-05   -0.49550E-06  6030   0.409E-03    0.145E-03
DAV:   5    -0.158564900618E+04   -0.61041E-06   -0.27136E-06  6030   0.294E-03
  28 F= -.15856490E+04 E0= -.15856372E+04  d E =-.494360E-04
       N       E                     dE             d eps       ncg     rms          rms(c)
DAV:   1    -0.158564903102E+04   -0.25452E-04   -0.98044E-04 11712   0.410E-02    0.561E-03
DAV:   2    -0.158564902695E+04    0.40643E-05   -0.86057E-06  6012   0.464E-03    0.338E-03
DAV:   3    -0.158564902558E+04    0.13768E-05   -0.36042E-06  6006   0.340E-03    0.241E-03
DAV:   4    -0.158564902414E+04    0.14397E-05   -0.18517E-06  6012   0.253E-03    0.137E-03
DAV:   5    -0.158564902316E+04    0.97649E-06   -0.11337E-06  6012   0.189E-03
  29 F= -.15856490E+04 E0= -.15856372E+04  d E =-.169847E-04
       N       E                     dE             d eps       ncg     rms          rms(c)
DAV:   1    -0.158564905530E+04   -0.31164E-04   -0.27645E-03 11688   0.679E-02    0.657E-03
DAV:   2    -0.158564905725E+04   -0.19499E-05   -0.16069E-05  7136   0.625E-03    0.477E-03
DAV:   3    -0.158564905813E+04   -0.88223E-06   -0.60869E-06  6084   0.393E-03    0.299E-03
DAV:   4    -0.158564905905E+04   -0.91381E-06   -0.35770E-06  6012   0.338E-03    0.784E-04
DAV:   5    -0.158564905921E+04   -0.16037E-06   -0.18927E-06  6006   0.237E-03
  30 F= -.15856491E+04 E0= -.15856372E+04  d E =-.360469E-04
       N       E                     dE             d eps       ncg     rms          rms(c)
DAV:   1    -0.158564911339E+04   -0.54348E-04   -0.86958E-03 11688   0.121E-01    0.117E-02
DAV:   2    -0.158564911449E+04   -0.10983E-05   -0.80526E-05 14336   0.111E-02    0.873E-03
DAV:   3    -0.158564911178E+04    0.27143E-05   -0.76801E-06  6376   0.477E-03    0.550E-03
DAV:   4    -0.158564910930E+04    0.24768E-05   -0.40026E-06  6048   0.417E-03    0.237E-03
DAV:   5    -0.158564910849E+04    0.81182E-06   -0.16822E-06  6012   0.315E-03
  31 F= -.15856491E+04 E0= -.15856373E+04  d E =-.492825E-04
       N       E                     dE             d eps       ncg     rms          rms(c)
DAV:   1    -0.158564909370E+04    0.15599E-04   -0.70793E-04 11700   0.354E-02    0.552E-03
DAV:   2    -0.158564909679E+04   -0.30836E-05   -0.44906E-06  6012   0.358E-03    0.312E-03
DAV:   3    -0.158564909856E+04   -0.17744E-05   -0.16481E-06  6000   0.243E-03    0.207E-03
DAV:   4    -0.158564909980E+04   -0.12387E-05   -0.75498E-07  6012   0.189E-03    0.109E-03
DAV:   5    -0.158564910071E+04   -0.91581E-06   -0.42144E-07  6012   0.122E-03
  32 F= -.15856491E+04 E0= -.15856373E+04  d E =0.777511E-05
       N       E                     dE             d eps       ncg     rms          rms(c)
DAV:   1    -0.158564913632E+04   -0.36517E-04   -0.40960E-03 11688   0.827E-02    0.743E-03
DAV:   2    -0.158564913694E+04   -0.62515E-06   -0.19993E-05  6320   0.707E-03    0.545E-03
DAV:   3    -0.158564913684E+04    0.98673E-07   -0.65774E-06  6036   0.398E-03    0.329E-03
DAV:   4    -0.158564913662E+04    0.22147E-06   -0.37546E-06  6012   0.348E-03    0.924E-04
DAV:   5    -0.158564913673E+04   -0.11317E-06   -0.18597E-06  6012   0.236E-03
  33 F= -.15856491E+04 E0= -.15856373E+04  d E =-.360191E-04
       N       E                     dE             d eps       ncg     rms          rms(c)
DAV:   1    -0.158564924285E+04   -0.10623E-03   -0.91096E-02 11592   0.390E-01    0.356E-02
DAV:   2    -0.158564928825E+04   -0.45408E-04   -0.76600E-04 17088   0.340E-02    0.273E-02
DAV:   3    -0.158564927592E+04    0.12329E-04   -0.63772E-05 12280   0.125E-02    0.163E-02
DAV:   4    -0.158564926799E+04    0.79325E-05   -0.36993E-05  9280   0.119E-02    0.653E-03
DAV:   5    -0.158564926546E+04    0.25298E-05   -0.10881E-05  7016   0.771E-03
  34 F= -.15856493E+04 E0= -.15856374E+04  d E =-.128729E-03
       N       E                     dE             d eps       ncg     rms          rms(c)
DAV:   1    -0.158564930246E+04   -0.34471E-04   -0.42281E-02 11604   0.266E-01    0.234E-02
DAV:   2    -0.158564932662E+04   -0.24154E-04   -0.36127E-04 16944   0.233E-02    0.183E-02
DAV:   3    -0.158564932247E+04    0.41443E-05   -0.18780E-05  7872   0.872E-03    0.135E-02
DAV:   4    -0.158564931782E+04    0.46489E-05   -0.19963E-05  7240   0.850E-03    0.427E-03
DAV:   5    -0.158564931729E+04    0.52970E-06   -0.65250E-06  6312   0.591E-03
  35 F= -.15856493E+04 E0= -.15856375E+04  d E =-.518315E-04
       N       E                     dE             d eps       ncg     rms          rms(c)
DAV:   1    -0.158564931987E+04   -0.20447E-05   -0.62220E-02 11592   0.322E-01    0.286E-02
DAV:   2    -0.158564935425E+04   -0.34382E-04   -0.52834E-04 17064   0.283E-02    0.222E-02
DAV:   3    -0.158564934785E+04    0.63956E-05   -0.33059E-05  9228   0.105E-02    0.154E-02
DAV:   4    -0.158564934171E+04    0.61438E-05   -0.25492E-05  8104   0.103E-02    0.512E-03
DAV:   5    -0.158564934074E+04    0.96618E-06   -0.85429E-06  6488   0.697E-03
  36 F= -.15856493E+04 E0= -.15856375E+04  d E =-.234505E-04
