(written by ASE)

200 atoms
2 atom types

0.0                   15.75  xlo xhi
0.0      13.639900109604907  ylo yhi
0.0      20.575713839378697  zlo zhi
                 -7.875                       0                       0  xy xz yz

Masses

     1      24.304999993747675 # Mg
     2      65.379999983181364 # Zn

Atoms # atomic

     1   1                       0                       0                       0
     2   2 -8.9743027823866822e-17       1.818653347947321      2.5719642299223371
     3   1                       0                       0      5.1439284598446742
     4   1 -8.9743027823866822e-17       1.818653347947321      7.7158926897670117
     5   2                       0                       0      10.287856919689348
     6   2 -8.9743027823866822e-17       1.818653347947321      12.859821149611685
     7   2                       0                       0      15.431785379534023
     8   1 -8.9743027823866822e-17       1.818653347947321       18.00374960945636
     9   1                  -1.575      2.7279800219209815                       0
    10   2                  -1.575       4.546633369868303      2.5719642299223371
    11   2                  -1.575      2.7279800219209815      5.1439284598446742
    12   2                  -1.575       4.546633369868303      7.7158926897670117
    13   1                  -1.575      2.7279800219209815      10.287856919689348
    14   1                  -1.575       4.546633369868303      12.859821149611685
    15   2                  -1.575      2.7279800219209815      15.431785379534023
    16   2                  -1.575       4.546633369868303       18.00374960945636
    17   1     -3.1499999999999999      5.4559600438419631                       0
    18   2     -3.1499999999999999      7.2746133917892841      2.5719642299223371
    19   2     -3.1499999999999999      5.4559600438419631      5.1439284598446742
    20   1     -3.1499999999999999      7.2746133917892841      7.7158926897670117
    21   1     -3.1499999999999999      5.4559600438419631      10.287856919689348
    22   1     -3.1499999999999999      7.2746133917892841      12.859821149611685
    23   1     -3.1499999999999999      5.4559600438419631      15.431785379534023
    24   2     -3.1499999999999999      7.2746133917892841       18.00374960945636
    25   2     -4.7249999999999996      8.1839400657629451                       0
    26   1     -4.7249999999999996      10.002593413710265      2.5719642299223371
    27   2     -4.7249999999999996      8.1839400657629451      5.1439284598446742
    28   1     -4.7249999999999996      10.002593413710265      7.7158926897670117
    29   1     -4.7249999999999996      8.1839400657629451      10.287856919689348
    30   2     -4.7249999999999996      10.002593413710265      12.859821149611685
    31   1     -4.7249999999999996      8.1839400657629451      15.431785379534023
    32   1     -4.7249999999999996      10.002593413710265       18.00374960945636
    33   2     -6.2999999999999998      10.911920087683926                       0
    34   2     -6.2999999999999998      12.730573435631246      2.5719642299223371
    35   1     -6.2999999999999998      10.911920087683926      5.1439284598446742
    36   1     -6.2999999999999998      12.730573435631246      7.7158926897670117
    37   2     -6.2999999999999998      10.911920087683926      10.287856919689348
    38   2     -6.2999999999999998      12.730573435631246      12.859821149611685
    39   2     -6.2999999999999998      10.911920087683926      15.431785379534023
    40   1     -6.2999999999999998      12.730573435631246       18.00374960945636
    41   2      3.1499999999999999                       0                       0
    42   1      3.1499999999999999       1.818653347947321      2.5719642299223371
    43   2      3.1499999999999999                       0      5.1439284598446742
    44   2      3.1499999999999999       1.818653347947321      7.7158926897670117
    45   2      3.1499999999999999                       0      10.287856919689348
    46   2      3.1499999999999999       1.818653347947321      12.859821149611685
    47   2      3.1499999999999999                       0      15.431785379534023
    48   2      3.1499999999999999       1.818653347947321       18.00374960945636
    49   1                   1.575      2.7279800219209815                       0
    50   1                   1.575       4.546633369868303      2.5719642299223371
    51   1                   1.575      2.7279800219209815      5.1439284598446742
    52   1                   1.575       4.546633369868303      7.7158926897670117
    53   2                   1.575      2.7279800219209815      10.287856919689348
    54   1                   1.575       4.546633369868303      12.859821149611685
    55   1                   1.575      2.7279800219209815      15.431785379534023
    56   2                   1.575       4.546633369868303       18.00374960945636
    57   2                       0      5.4559600438419631                       0
    58   2 -8.9743027823866822e-17      7.2746133917892841      2.5719642299223371
    59   2                       0      5.4559600438419631      5.1439284598446742
    60   2 -8.9743027823866822e-17      7.2746133917892841      7.7158926897670117
    61   1                       0      5.4559600438419631      10.287856919689348
    62   1 -8.9743027823866822e-17      7.2746133917892841      12.859821149611685
    63   2                       0      5.4559600438419631      15.431785379534023
    64   2 -8.9743027823866822e-17      7.2746133917892841       18.00374960945636
    65   2                  -1.575      8.1839400657629451                       0
    66   2                  -1.575      10.002593413710265      2.5719642299223371
    67   2                  -1.575      8.1839400657629451      5.1439284598446742
    68   2                  -1.575      10.002593413710265      7.7158926897670117
    69   1                  -1.575      8.1839400657629451      10.287856919689348
    70   1                  -1.575      10.002593413710265      12.859821149611685
    71   2                  -1.575      8.1839400657629451      15.431785379534023
    72   2                  -1.575      10.002593413710265       18.00374960945636
    73   2     -3.1499999999999999      10.911920087683926                       0
    74   2     -3.1499999999999999      12.730573435631246      2.5719642299223371
    75   1     -3.1499999999999999      10.911920087683926      5.1439284598446742
    76   1     -3.1499999999999999      12.730573435631246      7.7158926897670117
    77   1     -3.1499999999999999      10.911920087683926      10.287856919689348
    78   1     -3.1499999999999999      12.730573435631246      12.859821149611685
    79   2     -3.1499999999999999      10.911920087683926      15.431785379534023
    80   2     -3.1499999999999999      12.730573435631246       18.00374960945636
    81   1      6.2999999999999998                       0                       0
    82   1      6.2999999999999998       1.818653347947321      2.5719642299223371
    83   2      6.2999999999999998                       0      5.1439284598446742
    84   2      6.2999999999999998       1.818653347947321      7.7158926897670117
    85   2      6.2999999999999998                       0      10.287856919689348
    86   2      6.2999999999999998       1.818653347947321      12.859821149611685
    87   2      6.2999999999999998                       0      15.431785379534023
    88   1      6.2999999999999998       1.818653347947321       18.00374960945636
    89   1      4.7249999999999996      2.7279800219209815                       0
    90   2      4.7249999999999996       4.546633369868303      2.5719642299223371
    91   2      4.7249999999999996      2.7279800219209815      5.1439284598446742
    92   2      4.7249999999999996       4.546633369868303      7.7158926897670117
    93   2      4.7249999999999996      2.7279800219209815      10.287856919689348
    94   2      4.7249999999999996       4.546633369868303      12.859821149611685
    95   1      4.7249999999999996      2.7279800219209815      15.431785379534023
    96   2      4.7249999999999996       4.546633369868303       18.00374960945636
    97   2      3.1499999999999999      5.4559600438419631                       0
    98   2      3.1499999999999999      7.2746133917892841      2.5719642299223371
    99   2      3.1499999999999999      5.4559600438419631      5.1439284598446742
   100   2      3.1499999999999999      7.2746133917892841      7.7158926897670117
   101   1      3.1499999999999999      5.4559600438419631      10.287856919689348
   102   2      3.1499999999999999      7.2746133917892841      12.859821149611685
   103   2      3.1499999999999999      5.4559600438419631      15.431785379534023
   104   1      3.1499999999999999      7.2746133917892841       18.00374960945636
   105   2                   1.575      8.1839400657629451                       0
   106   1                   1.575      10.002593413710265      2.5719642299223371
   107   1                   1.575      8.1839400657629451      5.1439284598446742
   108   1                   1.575      10.002593413710265      7.7158926897670117
   109   2                   1.575      8.1839400657629451      10.287856919689348
   110   2                   1.575      10.002593413710265      12.859821149611685
   111   2                   1.575      8.1839400657629451      15.431785379534023
   112   2                   1.575      10.002593413710265       18.00374960945636
   113   2                       0      10.911920087683926                       0
   114   1 -8.9743027823866822e-17      12.730573435631246      2.5719642299223371
   115   1                       0      10.911920087683926      5.1439284598446742
   116   1 -8.9743027823866822e-17      12.730573435631246      7.7158926897670117
   117   1                       0      10.911920087683926      10.287856919689348
   118   2 -8.9743027823866822e-17      12.730573435631246      12.859821149611685
   119   2                       0      10.911920087683926      15.431785379534023
   120   1 -8.9743027823866822e-17      12.730573435631246       18.00374960945636
   121   1      9.4499999999999993                       0                       0
   122   1      9.4499999999999993       1.818653347947321      2.5719642299223371
   123   2      9.4499999999999993                       0      5.1439284598446742
   124   2      9.4499999999999993       1.818653347947321      7.7158926897670117
   125   2      9.4499999999999993                       0      10.287856919689348
   126   2      9.4499999999999993       1.818653347947321      12.859821149611685
   127   2      9.4499999999999993                       0      15.431785379534023
   128   2      9.4499999999999993       1.818653347947321       18.00374960945636
   129   1      7.8749999999999991      2.7279800219209815                       0
   130   1      7.8749999999999991       4.546633369868303      2.5719642299223371
   131   2      7.8749999999999991      2.7279800219209815      5.1439284598446742
   132   1      7.8749999999999991       4.546633369868303      7.7158926897670117
   133   1      7.8749999999999991      2.7279800219209815      10.287856919689348
   134   1      7.8749999999999991       4.546633369868303      12.859821149611685
   135   2      7.8749999999999991      2.7279800219209815      15.431785379534023
   136   2      7.8749999999999991       4.546633369868303       18.00374960945636
   137   2      6.2999999999999989      5.4559600438419631                       0
   138   1      6.2999999999999989      7.2746133917892841      2.5719642299223371
   139   1      6.2999999999999989      5.4559600438419631      5.1439284598446742
   140   2      6.2999999999999989      7.2746133917892841      7.7158926897670117
   141   2      6.2999999999999989      5.4559600438419631      10.287856919689348
   142   1      6.2999999999999989      7.2746133917892841      12.859821149611685
   143   2      6.2999999999999989      5.4559600438419631      15.431785379534023
   144   1      6.2999999999999989      7.2746133917892841       18.00374960945636
   145   2      4.7249999999999996      8.1839400657629451                       0
   146   2      4.7249999999999996      10.002593413710265      2.5719642299223371
   147   1      4.7249999999999996      8.1839400657629451      5.1439284598446742
   148   1      4.7249999999999996      10.002593413710265      7.7158926897670117
   149   1      4.7249999999999996      8.1839400657629451      10.287856919689348
   150   2      4.7249999999999996      10.002593413710265      12.859821149611685
   151   1      4.7249999999999996      8.1839400657629451      15.431785379534023
   152   1      4.7249999999999996      10.002593413710265       18.00374960945636
   153   2      3.1499999999999995      10.911920087683926                       0
   154   2      3.1499999999999995      12.730573435631246      2.5719642299223371
   155   1      3.1499999999999995      10.911920087683926      5.1439284598446742
   156   2      3.1499999999999995      12.730573435631246      7.7158926897670117
   157   1      3.1499999999999995      10.911920087683926      10.287856919689348
   158   2      3.1499999999999995      12.730573435631246      12.859821149611685
   159   2      3.1499999999999995      10.911920087683926      15.431785379534023
   160   1      3.1499999999999995      12.730573435631246       18.00374960945636
   161   1                    12.6                       0                       0
   162   2                    12.6       1.818653347947321      2.5719642299223371
   163   2                    12.6                       0      5.1439284598446742
   164   1                    12.6       1.818653347947321      7.7158926897670117
   165   2                    12.6                       0      10.287856919689348
   166   2                    12.6       1.818653347947321      12.859821149611685
   167   2                    12.6                       0      15.431785379534023
   168   2                    12.6       1.818653347947321       18.00374960945636
   169   1                  11.025      2.7279800219209815                       0
   170   1                  11.025       4.546633369868303      2.5719642299223371
   171   1                  11.025      2.7279800219209815      5.1439284598446742
   172   2                  11.025       4.546633369868303      7.7158926897670117
   173   2                  11.025      2.7279800219209815      10.287856919689348
   174   2                  11.025       4.546633369868303      12.859821149611685
   175   1                  11.025      2.7279800219209815      15.431785379534023
   176   2                  11.025       4.546633369868303       18.00374960945636
   177   1      9.4499999999999993      5.4559600438419631                       0
   178   2      9.4499999999999993      7.2746133917892841      2.5719642299223371
   179   2      9.4499999999999993      5.4559600438419631      5.1439284598446742
   180   2      9.4499999999999993      7.2746133917892841      7.7158926897670117
   181   1      9.4499999999999993      5.4559600438419631      10.287856919689348
   182   1      9.4499999999999993      7.2746133917892841      12.859821149611685
   183   1      9.4499999999999993      5.4559600438419631      15.431785379534023
   184   2      9.4499999999999993      7.2746133917892841       18.00374960945636
   185   2                   7.875      8.1839400657629451                       0
   186   1                   7.875      10.002593413710265      2.5719642299223371
   187   1                   7.875      8.1839400657629451      5.1439284598446742
   188   1                   7.875      10.002593413710265      7.7158926897670117
   189   2                   7.875      8.1839400657629451      10.287856919689348
   190   1                   7.875      10.002593413710265      12.859821149611685
   191   2                   7.875      8.1839400657629451      15.431785379534023
   192   1                   7.875      10.002593413710265       18.00374960945636
   193   1      6.2999999999999998      10.911920087683926                       0
   194   2      6.2999999999999998      12.730573435631246      2.5719642299223371
   195   1      6.2999999999999998      10.911920087683926      5.1439284598446742
   196   1      6.2999999999999998      12.730573435631246      7.7158926897670117
   197   2      6.2999999999999998      10.911920087683926      10.287856919689348
   198   1      6.2999999999999998      12.730573435631246      12.859821149611685
   199   1      6.2999999999999998      10.911920087683926      15.431785379534023
   200   1      6.2999999999999998      12.730573435631246       18.00374960945636
