       N       E                     dE             d eps       ncg     rms          rms(c)
DAV:   1     0.237567573324E+04    0.23757E+04   -0.29941E+05 11936   0.144E+03
DAV:   2    -0.119575385776E+04   -0.35714E+04   -0.34224E+04 13764   0.314E+02
DAV:   3    -0.165527213114E+04   -0.45952E+03   -0.42962E+03 18320   0.822E+01
DAV:   4    -0.168026978744E+04   -0.24998E+02   -0.23672E+02 16688   0.178E+01
DAV:   5    -0.168132196792E+04   -0.10522E+01   -0.10354E+01 18560   0.407E+00    0.426E+01
DAV:   6    -0.163237692090E+04    0.48945E+02   -0.11800E+02 18072   0.141E+01    0.228E+01
DAV:   7    -0.161905021507E+04    0.13327E+02   -0.82092E+01 16904   0.136E+01    0.150E+01
DAV:   8    -0.161015444965E+04    0.88958E+01   -0.43306E+01 16944   0.119E+01    0.690E+00
DAV:   9    -0.160749477905E+04    0.26597E+01   -0.16077E+01 17248   0.677E+00    0.230E+00
DAV:  10    -0.160753140822E+04   -0.36629E-01   -0.31759E+00 16936   0.247E+00    0.154E+00
DAV:  11    -0.160749975731E+04    0.31651E-01   -0.38471E-01 15608   0.879E-01    0.905E-01
DAV:  12    -0.160748579506E+04    0.13962E-01   -0.14068E-01 14232   0.582E-01    0.509E-01
DAV:  13    -0.160747775958E+04    0.80355E-02   -0.31577E-02 15736   0.330E-01    0.304E-01
DAV:  14    -0.160747427520E+04    0.34844E-02   -0.15895E-02 14608   0.185E-01    0.902E-02
DAV:  15    -0.160747433302E+04   -0.57815E-04   -0.39582E-03 16336   0.943E-02    0.486E-02
DAV:  16    -0.160747430402E+04    0.28998E-04   -0.87024E-04 16344   0.503E-02    0.318E-02
DAV:  17    -0.160747426596E+04    0.38063E-04   -0.24733E-04 15896   0.262E-02    0.162E-02
DAV:  18    -0.160747424944E+04    0.16512E-04   -0.63900E-05 12016   0.132E-02    0.900E-03
DAV:  19    -0.160747424168E+04    0.77621E-05   -0.18946E-05  7872   0.775E-03
   1 F= -.16074742E+04 E0= -.16074519E+04  d E =-.160747E+04
       N       E                     dE             d eps       ncg     rms          rms(c)
DAV:   1    -0.161016171546E+04   -0.26875E+01   -0.88067E+02 11928   0.435E+01    0.150E+01
DAV:   2    -0.160021308558E+04    0.99486E+01   -0.40381E+01 17528   0.824E+00    0.729E+00
DAV:   3    -0.159789349487E+04    0.23196E+01   -0.16625E+01 17440   0.529E+00    0.475E+00
DAV:   4    -0.159712276409E+04    0.77073E+00   -0.51828E+00 17864   0.384E+00    0.307E+00
DAV:   5    -0.159654819177E+04    0.57457E+00   -0.29276E+00 17416   0.286E+00    0.989E-01
DAV:   6    -0.159652916395E+04    0.19028E-01   -0.65508E-01 15848   0.122E+00    0.615E-01
DAV:   7    -0.159653111866E+04   -0.19547E-02   -0.10790E-01 16144   0.461E-01    0.419E-01
DAV:   8    -0.159653112657E+04   -0.79146E-05   -0.29564E-02 16720   0.237E-01    0.229E-01
DAV:   9    -0.159653372705E+04   -0.26005E-02   -0.19868E-02 17048   0.172E-01    0.167E-01
DAV:  10    -0.159653279522E+04    0.93183E-03   -0.49624E-03 16952   0.110E-01    0.748E-02
DAV:  11    -0.159653267430E+04    0.12092E-03   -0.16098E-03 17984   0.557E-02    0.418E-02
DAV:  12    -0.159653271772E+04   -0.43422E-04   -0.78567E-04 17224   0.375E-02    0.314E-02
DAV:  13    -0.159653273236E+04   -0.14643E-04   -0.19080E-04 16168   0.191E-02    0.131E-02
DAV:  14    -0.159653273293E+04   -0.56328E-06   -0.39115E-05  9640   0.107E-02
   2 F= -.15965327E+04 E0= -.15965474E+04  d E =0.109415E+02
       N       E                     dE             d eps       ncg     rms          rms(c)
DAV:   1    -0.161768037301E+04   -0.21148E+02   -0.36161E+02 11928   0.311E+01    0.107E+01
DAV:   2    -0.161228067397E+04    0.53997E+01   -0.11538E+01 14858   0.509E+00    0.487E+00
DAV:   3    -0.161119072670E+04    0.10899E+01   -0.41707E+00 15248   0.289E+00    0.281E+00
DAV:   4    -0.161083322951E+04    0.35750E+00   -0.18537E+00 16568   0.249E+00    0.143E+00
DAV:   5    -0.161070269367E+04    0.13054E+00   -0.80897E-01 16384   0.164E+00    0.462E-01
DAV:   6    -0.161070383722E+04   -0.11436E-02   -0.16599E-01 15320   0.649E-01    0.315E-01
DAV:   7    -0.161070657328E+04   -0.27361E-02   -0.26430E-02 15848   0.231E-01    0.204E-01
DAV:   8    -0.161070893031E+04   -0.23570E-02   -0.82679E-03 15928   0.130E-01    0.102E-01
DAV:   9    -0.161071019622E+04   -0.12659E-02   -0.32214E-03 14112   0.857E-02    0.659E-02
DAV:  10    -0.161071033157E+04   -0.13534E-03   -0.14178E-03 15872   0.527E-02    0.274E-02
DAV:  11    -0.161071046922E+04   -0.13765E-03   -0.32158E-04 16792   0.271E-02    0.254E-02
DAV:  12    -0.161071051455E+04   -0.45331E-04   -0.86496E-05 13800   0.154E-02    0.161E-02
DAV:  13    -0.161071051235E+04    0.21964E-05   -0.51714E-05 10840   0.883E-03
   3 F= -.16107105E+04 E0= -.16107063E+04  d E =-.141778E+02
       N       E                     dE             d eps       ncg     rms          rms(c)
DAV:   1    -0.161075417681E+04   -0.43662E-01   -0.76173E+00 11928   0.354E+00    0.448E-01
DAV:   2    -0.161075985584E+04   -0.56790E-02   -0.14157E-01 17584   0.522E-01    0.300E-01
DAV:   3    -0.161075748657E+04    0.23693E-02   -0.25637E-02 18912   0.262E-01    0.220E-01
DAV:   4    -0.161075640964E+04    0.10769E-02   -0.59193E-03 19384   0.129E-01    0.148E-01
DAV:   5    -0.161075581339E+04    0.59625E-03   -0.37241E-03 16312   0.923E-02    0.494E-02
DAV:   6    -0.161075575540E+04    0.57982E-04   -0.91467E-04 16056   0.495E-02    0.269E-02
DAV:   7    -0.161075574045E+04    0.14950E-04   -0.19053E-04 15616   0.236E-02    0.181E-02
DAV:   8    -0.161075573468E+04    0.57700E-05   -0.48622E-05 11120   0.110E-02
   4 F= -.16107557E+04 E0= -.16107530E+04  d E =-.452223E-01
       N       E                     dE             d eps       ncg     rms          rms(c)
DAV:   1    -0.161076166197E+04   -0.59215E-02   -0.11046E+00 11966   0.135E+00    0.157E-01
DAV:   2    -0.161076270442E+04   -0.10424E-02   -0.17028E-02 17544   0.195E-01    0.123E-01
DAV:   3    -0.161076210473E+04    0.59968E-03   -0.39487E-03 18366   0.110E-01    0.847E-02
DAV:   4    -0.161076197028E+04    0.13446E-03   -0.85184E-04 17840   0.461E-02    0.519E-02
DAV:   5    -0.161076192564E+04    0.44640E-04   -0.53869E-04 15288   0.365E-02    0.170E-02
DAV:   6    -0.161076191860E+04    0.70371E-05   -0.12201E-04 14928   0.195E-02    0.102E-02
DAV:   7    -0.161076191321E+04    0.53914E-05   -0.24263E-05  7960   0.930E-03
   5 F= -.16107619E+04 E0= -.16107595E+04  d E =-.617853E-02
       N       E                     dE             d eps       ncg     rms          rms(c)
DAV:   1    -0.161076335361E+04   -0.14350E-02   -0.11110E-01 12036   0.502E-01    0.152E-01
DAV:   2    -0.161076221017E+04    0.11434E-02   -0.29179E-03 16472   0.815E-02    0.728E-02
DAV:   3    -0.161076200441E+04    0.20576E-03   -0.14076E-03 18004   0.618E-02    0.549E-02
DAV:   4    -0.161076179072E+04    0.21369E-03   -0.59034E-04 17808   0.443E-02    0.264E-02
DAV:   5    -0.161076171704E+04    0.73676E-04   -0.26950E-04 15624   0.257E-02    0.915E-03
DAV:   6    -0.161076171113E+04    0.59088E-05   -0.39341E-05  9752   0.113E-02
   6 F= -.16107617E+04 E0= -.16107598E+04  d E =0.202079E-03
       N       E                     dE             d eps       ncg     rms          rms(c)
DAV:   1    -0.161076407341E+04   -0.23564E-02   -0.98754E-02 12016   0.436E-01    0.991E-02
DAV:   2    -0.161076382155E+04    0.25186E-03   -0.16079E-03 16840   0.586E-02    0.521E-02
DAV:   3    -0.161076379295E+04    0.28603E-04   -0.65242E-04 19174   0.434E-02    0.405E-02
DAV:   4    -0.161076374055E+04    0.52396E-04   -0.28866E-04 18368   0.294E-02    0.176E-02
DAV:   5    -0.161076375533E+04   -0.14776E-04   -0.12052E-04 14480   0.167E-02    0.684E-03
DAV:   6    -0.161076375553E+04   -0.20225E-06   -0.14866E-05  7064   0.746E-03
   7 F= -.16107638E+04 E0= -.16107617E+04  d E =-.204440E-02
       N       E                     dE             d eps       ncg     rms          rms(c)
DAV:   1    -0.161076426321E+04   -0.50788E-03   -0.58924E-02 11974   0.311E-01    0.361E-02
DAV:   2    -0.161076429799E+04   -0.34781E-04   -0.70722E-04 17576   0.422E-02    0.290E-02
DAV:   3    -0.161076426327E+04    0.34720E-04   -0.18797E-04 17266   0.252E-02    0.202E-02
DAV:   4    -0.161076424927E+04    0.13996E-04   -0.33636E-05  9200   0.101E-02    0.100E-02
DAV:   5    -0.161076424371E+04    0.55577E-05   -0.16344E-05  7248   0.823E-03
   8 F= -.16107642E+04 E0= -.16107622E+04  d E =-.488181E-03
       N       E                     dE             d eps       ncg     rms          rms(c)
DAV:   1    -0.161076452126E+04   -0.27198E-03   -0.45571E-02 11984   0.276E-01    0.340E-02
DAV:   2    -0.161076455232E+04   -0.31069E-04   -0.47856E-04 17528   0.314E-02    0.237E-02
DAV:   3    -0.161076454367E+04    0.86521E-05   -0.89707E-05 14840   0.180E-02    0.178E-02
DAV:   4    -0.161076454710E+04   -0.34241E-05   -0.30772E-05  8264   0.939E-03    0.614E-03
DAV:   5    -0.161076455186E+04   -0.47644E-05   -0.10153E-05  6792   0.656E-03
   9 F= -.16107646E+04 E0= -.16107625E+04  d E =-.308148E-03
       N       E                     dE             d eps       ncg     rms          rms(c)
DAV:   1    -0.161076468649E+04   -0.13940E-03   -0.25161E-03 12076   0.772E-02    0.250E-02
DAV:   2    -0.161076463610E+04    0.50392E-04   -0.64542E-05 12168   0.119E-02    0.115E-02
DAV:   3    -0.161076461840E+04    0.17701E-04   -0.19073E-05  6702   0.795E-03    0.642E-03
DAV:   4    -0.161076460898E+04    0.94183E-05   -0.62358E-06  6608   0.618E-03    0.329E-03
DAV:   5    -0.161076460361E+04    0.53693E-05   -0.40278E-06  6264   0.427E-03
  10 F= -.16107646E+04 E0= -.16107626E+04  d E =-.517511E-04
       N       E                     dE             d eps       ncg     rms          rms(c)
DAV:   1    -0.161076477030E+04   -0.16132E-03   -0.18635E-02 11992   0.174E-01    0.179E-02
DAV:   2    -0.161076478492E+04   -0.14619E-04   -0.16824E-04 17384   0.180E-02    0.138E-02
DAV:   3    -0.161076478219E+04    0.27285E-05   -0.16140E-05  8380   0.880E-03    0.107E-02
DAV:   4    -0.161076478444E+04   -0.22565E-05   -0.14977E-05  6528   0.625E-03    0.221E-03
DAV:   5    -0.161076478486E+04   -0.41720E-06   -0.35698E-06  6264   0.444E-03
  11 F= -.16107648E+04 E0= -.16107628E+04  d E =-.181249E-03
       N       E                     dE             d eps       ncg     rms          rms(c)
DAV:   1    -0.161076494801E+04   -0.16357E-03   -0.25157E-02 11976   0.203E-01    0.207E-02
DAV:   2    -0.161076495357E+04   -0.55585E-05   -0.22706E-04 17496   0.206E-02    0.156E-02
DAV:   3    -0.161076494725E+04    0.63160E-05   -0.22280E-05  8664   0.101E-02    0.121E-02
DAV:   4    -0.161076493836E+04    0.88937E-05   -0.15459E-05  6760   0.705E-03    0.356E-03
DAV:   5    -0.161076493671E+04    0.16500E-05   -0.52456E-06  6320   0.512E-03
  12 F= -.16107649E+04 E0= -.16107629E+04  d E =-.151849E-03
       N       E                     dE             d eps       ncg     rms          rms(c)
DAV:   1    -0.161076494749E+04   -0.91313E-05   -0.63718E-04 12076   0.393E-02    0.127E-02
DAV:   2    -0.161076495135E+04   -0.38553E-05   -0.12883E-05  6240   0.593E-03    0.591E-03
DAV:   3    -0.161076495673E+04   -0.53811E-05   -0.58972E-06  6238   0.457E-03    0.295E-03
DAV:   4    -0.161076495980E+04   -0.30723E-05   -0.25253E-06  6240   0.367E-03    0.134E-03
DAV:   5    -0.161076496175E+04   -0.19471E-05   -0.11196E-06  6240   0.219E-03
  13 F= -.16107650E+04 E0= -.16107629E+04  d E =-.250370E-04
       N       E                     dE             d eps       ncg     rms          rms(c)
DAV:   1    -0.161076505903E+04   -0.99233E-04   -0.91909E-03 11980   0.123E-01    0.134E-02
DAV:   2    -0.161076505587E+04    0.31645E-05   -0.77424E-05 14256   0.119E-02    0.947E-03
DAV:   3    -0.161076505256E+04    0.33115E-05   -0.10282E-05  7150   0.596E-03    0.673E-03
DAV:   4    -0.161076504782E+04    0.47409E-05   -0.49916E-06  6240   0.472E-03    0.236E-03
DAV:   5    -0.161076504637E+04    0.14443E-05   -0.23211E-06  6238   0.314E-03
  14 F= -.16107650E+04 E0= -.16107630E+04  d E =-.846245E-04
       N       E                     dE             d eps       ncg     rms          rms(c)
DAV:   1    -0.161076511827E+04   -0.70457E-04   -0.93940E-03 11976   0.124E-01    0.121E-02
DAV:   2    -0.161076512577E+04   -0.75014E-05   -0.79252E-05 14560   0.115E-02    0.917E-03
DAV:   3    -0.161076512614E+04   -0.36461E-06   -0.82750E-06  6742   0.525E-03    0.564E-03
DAV:   4    -0.161076512764E+04   -0.14991E-05   -0.49916E-06  6240   0.455E-03    0.131E-03
DAV:   5    -0.161076512756E+04    0.73216E-07   -0.14381E-06  6240   0.265E-03
  15 F= -.16107651E+04 E0= -.16107631E+04  d E =-.811936E-04
       N       E                     dE             d eps       ncg     rms          rms(c)
DAV:   1    -0.161076516997E+04   -0.42335E-04   -0.26027E-03 11980   0.665E-02    0.996E-03
DAV:   2    -0.161076516022E+04    0.97519E-05   -0.19262E-05  6752   0.698E-03    0.562E-03
DAV:   3    -0.161076515555E+04    0.46680E-05   -0.72708E-06  6300   0.450E-03    0.296E-03
DAV:   4    -0.161076515289E+04    0.26598E-05   -0.33916E-06  6186   0.370E-03    0.155E-03
DAV:   5    -0.161076515166E+04    0.12327E-05   -0.18950E-06  6186   0.267E-03
  16 F= -.16107652E+04 E0= -.16107631E+04  d E =-.240960E-04
       N       E                     dE             d eps       ncg     rms          rms(c)
DAV:   1    -0.161076518273E+04   -0.29840E-04   -0.22187E-03 11980   0.610E-02    0.870E-03
DAV:   2    -0.161076518702E+04   -0.42856E-05   -0.16125E-05  7304   0.635E-03    0.522E-03
DAV:   3    -0.161076519030E+04   -0.32838E-05   -0.64275E-06  6190   0.399E-03    0.247E-03
DAV:   4    -0.161076519247E+04   -0.21684E-05   -0.31650E-06  6186   0.320E-03    0.132E-03
DAV:   5    -0.161076519331E+04   -0.84349E-06   -0.17296E-06  6186   0.250E-03
  17 F= -.16107652E+04 E0= -.16107632E+04  d E =-.416537E-04
       N       E                     dE             d eps       ncg     rms          rms(c)
DAV:   1    -0.161076523232E+04   -0.39847E-04   -0.35944E-03 11960   0.764E-02    0.788E-03
DAV:   2    -0.161076523106E+04    0.12611E-05   -0.22681E-05  7984   0.742E-03    0.562E-03
DAV:   3    -0.161076522954E+04    0.15135E-05   -0.78558E-06  6302   0.439E-03    0.271E-03
DAV:   4    -0.161076522856E+04    0.98775E-06   -0.41822E-06  6180   0.374E-03    0.878E-04
DAV:   5    -0.161076522869E+04   -0.13777E-06   -0.22487E-06  6172   0.270E-03
  18 F= -.16107652E+04 E0= -.16107632E+04  d E =-.353794E-04
       N       E                     dE             d eps       ncg     rms          rms(c)
DAV:   1    -0.161076525838E+04   -0.29824E-04   -0.38149E-03 11960   0.789E-02    0.868E-03
DAV:   2    -0.161076526272E+04   -0.43417E-05   -0.26019E-05  8256   0.782E-03    0.592E-03
DAV:   3    -0.161076526528E+04   -0.25570E-05   -0.86503E-06  6240   0.447E-03    0.252E-03
DAV:   4    -0.161076526719E+04   -0.19088E-05   -0.43017E-06  6180   0.361E-03    0.113E-03
DAV:   5    -0.161076526752E+04   -0.33077E-06   -0.23119E-06  6180   0.284E-03
  19 F= -.16107653E+04 E0= -.16107632E+04  d E =-.388244E-04
       N       E                     dE             d eps       ncg     rms          rms(c)
DAV:   1    -0.161076528257E+04   -0.15386E-04   -0.31367E-04 11948   0.240E-02    0.538E-03
DAV:   2    -0.161076527719E+04    0.53873E-05   -0.45440E-06  6078   0.335E-03    0.269E-03
DAV:   3    -0.161076527458E+04    0.26041E-05   -0.19863E-06  6066   0.248E-03    0.141E-03
DAV:   4    -0.161076527318E+04    0.14043E-05   -0.95862E-07  6072   0.188E-03    0.774E-04
DAV:   5    -0.161076527238E+04    0.79511E-06   -0.54336E-07  6072   0.141E-03
  20 F= -.16107653E+04 E0= -.16107633E+04  d E =-.486455E-05
       N       E                     dE             d eps       ncg     rms          rms(c)
DAV:   1    -0.161076529605E+04   -0.22868E-04   -0.24500E-03 11960   0.630E-02    0.621E-03
DAV:   2    -0.161076529743E+04   -0.13865E-05   -0.13674E-05  6360   0.591E-03    0.452E-03
DAV:   3    -0.161076529814E+04   -0.70575E-06   -0.53835E-06  6134   0.343E-03    0.124E-03
DAV:   4    -0.161076529864E+04   -0.49864E-06   -0.25282E-06  6108   0.275E-03    0.690E-04
DAV:   5    -0.161076529866E+04   -0.21259E-07   -0.13876E-06  6098   0.207E-03
  21 F= -.16107653E+04 E0= -.16107633E+04  d E =-.262755E-04
       N       E                     dE             d eps       ncg     rms          rms(c)
DAV:   1    -0.161076534593E+04   -0.47298E-04   -0.13041E-02 11956   0.146E-01    0.145E-02
DAV:   2    -0.161076534840E+04   -0.24644E-05   -0.11603E-04 16336   0.137E-02    0.108E-02
DAV:   3    -0.161076534325E+04    0.51451E-05   -0.87903E-06  6990   0.489E-03    0.529E-03
DAV:   4    -0.161076534053E+04    0.27276E-05   -0.44828E-06  6312   0.456E-03    0.183E-03
DAV:   5    -0.161076534025E+04    0.27976E-06   -0.14744E-06  6226   0.315E-03
  22 F= -.16107653E+04 E0= -.16107633E+04  d E =-.415887E-04
       N       E                     dE             d eps       ncg     rms          rms(c)
DAV:   1    -0.161076531541E+04    0.25121E-04   -0.38233E-03 11960   0.795E-02    0.971E-03
DAV:   2    -0.161076531933E+04   -0.39284E-05   -0.20664E-05  6436   0.743E-03    0.614E-03
DAV:   3    -0.161076532228E+04   -0.29506E-05   -0.71091E-06  6060   0.406E-03    0.270E-03
DAV:   4    -0.161076532432E+04   -0.20360E-05   -0.33108E-06  6054   0.324E-03    0.142E-03
DAV:   5    -0.161076532485E+04   -0.53243E-06   -0.16572E-06  6046   0.252E-03
  23 F= -.16107653E+04 E0= -.16107633E+04  d E =0.153935E-04
       N       E                     dE             d eps       ncg     rms          rms(c)
DAV:   1    -0.161076535170E+04   -0.27377E-04   -0.43491E-03 11960   0.841E-02    0.778E-03
DAV:   2    -0.161076535209E+04   -0.39638E-06   -0.19934E-05  6354   0.727E-03    0.568E-03
DAV:   3    -0.161076535132E+04    0.77532E-06   -0.64974E-06  6060   0.381E-03    0.178E-03
DAV:   4    -0.161076535135E+04   -0.33211E-07   -0.28933E-06  6048   0.310E-03    0.920E-04
DAV:   5    -0.161076535144E+04   -0.83902E-07   -0.14229E-06  6046   0.217E-03
  24 F= -.16107654E+04 E0= -.16107633E+04  d E =-.265825E-04
       N       E                     dE             d eps       ncg     rms          rms(c)
DAV:   1    -0.161076539630E+04   -0.44944E-04   -0.26515E-02 11936   0.207E-01    0.198E-02
DAV:   2    -0.161076540710E+04   -0.10807E-04   -0.22593E-04 17496   0.191E-02    0.151E-02
DAV:   3    -0.161076539907E+04    0.80301E-05   -0.16083E-05  7468   0.656E-03    0.584E-03
DAV:   4    -0.161076539725E+04    0.18248E-05   -0.72156E-06  6832   0.608E-03    0.249E-03
DAV:   5    -0.161076539700E+04    0.24388E-06   -0.21007E-06  6226   0.387E-03
  25 F= -.16107654E+04 E0= -.16107634E+04  d E =-.455681E-04
       N       E                     dE             d eps       ncg     rms          rms(c)
DAV:   1    -0.161076540105E+04   -0.38057E-05   -0.67284E-04 11960   0.333E-02    0.376E-03
DAV:   2    -0.161076540325E+04   -0.21984E-05   -0.46222E-06  6042   0.339E-03    0.246E-03
DAV:   3    -0.161076540440E+04   -0.11504E-05   -0.16989E-06  6042   0.216E-03    0.148E-03
DAV:   4    -0.161076540547E+04   -0.10661E-05   -0.93303E-07  6018   0.179E-03    0.607E-04
DAV:   5    -0.161076540586E+04   -0.38760E-06   -0.53520E-07  6018   0.128E-03
  26 F= -.16107654E+04 E0= -.16107634E+04  d E =-.885208E-05
       N       E                     dE             d eps       ncg     rms          rms(c)
DAV:   1    -0.161076541006E+04   -0.45968E-05   -0.28361E-04 11840   0.215E-02    0.261E-03
DAV:   2    -0.161076540887E+04    0.11902E-05   -0.22653E-06  6012   0.237E-03    0.172E-03
DAV:   3    -0.161076540819E+04    0.68908E-06   -0.88751E-07  6012   0.153E-03    0.960E-04
DAV:   4    -0.161076540764E+04    0.54820E-06   -0.48907E-07  6012   0.127E-03    0.439E-04
DAV:   5    -0.161076540747E+04    0.17161E-06   -0.28703E-07  6012   0.967E-04
  27 F= -.16107654E+04 E0= -.16107634E+04  d E =-.161015E-05
       N       E                     dE             d eps       ncg     rms          rms(c)
DAV:   1    -0.161076540880E+04   -0.11620E-05   -0.13537E-04 11712   0.149E-02    0.180E-03
DAV:   2    -0.161076540976E+04   -0.96142E-06   -0.10787E-06  6012   0.167E-03    0.117E-03
DAV:   3    -0.161076541034E+04   -0.58048E-06   -0.42973E-07  6012   0.108E-03    0.620E-04
DAV:   4    -0.161076541076E+04   -0.42082E-06   -0.22986E-07  6012   0.892E-04    0.269E-04
DAV:   5    -0.161076541090E+04   -0.13456E-06   -0.13527E-07  6012   0.667E-04
  28 F= -.16107654E+04 E0= -.16107634E+04  d E =-.343091E-05
       N       E                     dE             d eps       ncg     rms          rms(c)
DAV:   1    -0.161076541385E+04   -0.30925E-05   -0.22928E-04 11744   0.193E-02    0.197E-03
DAV:   2    -0.161076541342E+04    0.43373E-06   -0.14924E-06  6012   0.196E-03    0.140E-03
DAV:   3    -0.161076541303E+04    0.38774E-06   -0.55735E-07  6012   0.116E-03    0.587E-04
DAV:   4    -0.161076541282E+04    0.20922E-06   -0.29232E-07  6012   0.972E-04    0.227E-04
DAV:   5    -0.161076541284E+04   -0.14396E-07   -0.16276E-07  6012   0.721E-04
  29 F= -.16107654E+04 E0= -.16107634E+04  d E =-.194163E-05
       N       E                     dE             d eps       ncg     rms          rms(c)
DAV:   1    -0.161076541451E+04   -0.16828E-05   -0.31394E-04 11856   0.226E-02    0.243E-03
DAV:   2    -0.161076541557E+04   -0.10659E-05   -0.19867E-06  6012   0.226E-03    0.167E-03
DAV:   3    -0.161076541631E+04   -0.73449E-06   -0.75215E-07  6012   0.133E-03    0.719E-04
DAV:   4    -0.161076541676E+04   -0.45584E-06   -0.38483E-07  6012   0.111E-03    0.312E-04
DAV:   5    -0.161076541682E+04   -0.60008E-07   -0.21454E-07  6012   0.855E-04
  30 F= -.16107654E+04 E0= -.16107634E+04  d E =-.398465E-05
       N       E                     dE             d eps       ncg     rms          rms(c)
DAV:   1    -0.161076541852E+04   -0.17548E-05   -0.16803E-05  6264   0.589E-03    0.133E-03
DAV:   2    -0.161076541736E+04    0.11597E-05   -0.10907E-06  6224   0.198E-03    0.644E-04
DAV:   3    -0.161076541656E+04    0.79676E-06   -0.24617E-07  6034   0.769E-04    0.417E-04
DAV:   4    -0.161076541618E+04    0.38564E-06   -0.11563E-07  6018   0.693E-04    0.197E-04
DAV:   5    -0.161076541592E+04    0.25872E-06   -0.65473E-08  6018   0.388E-04
  31 F= -.16107654E+04 E0= -.16107634E+04  d E =0.906060E-06
       N       E                     dE             d eps       ncg     rms          rms(c)
DAV:   1    -0.161076541749E+04   -0.13183E-05   -0.18141E-04 11736   0.172E-02    0.169E-03
DAV:   2    -0.161076541781E+04   -0.31672E-06   -0.11063E-06  6012   0.164E-03    0.122E-03
DAV:   3    -0.161076541809E+04   -0.27503E-06   -0.42252E-07  6012   0.934E-04    0.392E-04
DAV:   4    -0.161076541821E+04   -0.12215E-06   -0.20499E-07  6012   0.747E-04    0.193E-04
DAV:   5    -0.161076541819E+04    0.16073E-07   -0.11064E-07  6012   0.553E-04
  32 F= -.16107654E+04 E0= -.16107634E+04  d E =-.227482E-05
       N       E                     dE             d eps       ncg     rms          rms(c)
DAV:   1    -0.161076542248E+04   -0.42697E-05   -0.10301E-03 11960   0.409E-02    0.403E-03
DAV:   2    -0.161076542168E+04    0.80078E-06   -0.56961E-06  6012   0.383E-03    0.289E-03
DAV:   3    -0.161076542076E+04    0.91895E-06   -0.20877E-06  6012   0.213E-03    0.969E-04
DAV:   4    -0.161076542045E+04    0.31214E-06   -0.10211E-06  6012   0.172E-03    0.472E-04
DAV:   5    -0.161076542051E+04   -0.60769E-07   -0.55149E-07  6012   0.135E-03
  33 F= -.16107654E+04 E0= -.16107634E+04  d E =-.231467E-05
       N       E                     dE             d eps       ncg     rms          rms(c)
DAV:   1    -0.161076541761E+04    0.28347E-05   -0.23700E-04 11760   0.201E-02    0.278E-03
DAV:   2    -0.161076541929E+04   -0.16776E-05   -0.12972E-06  6012   0.189E-03    0.161E-03
DAV:   3    -0.161076542039E+04   -0.10972E-05   -0.40539E-07  6012   0.101E-03    0.787E-04
DAV:   4    -0.161076542103E+04   -0.64871E-06   -0.16142E-07  6012   0.767E-04    0.424E-04
DAV:   5    -0.161076542130E+04   -0.26089E-06   -0.72839E-08  6012   0.577E-04
  34 F= -.16107654E+04 E0= -.16107634E+04  d E =-.788980E-06
       N       E                     dE             d eps       ncg     rms          rms(c)
DAV:   1    -0.161076542401E+04   -0.29724E-05   -0.31995E-04 11856   0.228E-02    0.216E-03
DAV:   2    -0.161076542364E+04    0.36588E-06   -0.15882E-06  6012   0.206E-03    0.155E-03
DAV:   3    -0.161076542326E+04    0.38581E-06   -0.52203E-07  6012   0.109E-03    0.586E-04
DAV:   4    -0.161076542308E+04    0.17408E-06   -0.25222E-07  6012   0.908E-04    0.240E-04
DAV:   5    -0.161076542310E+04   -0.22752E-07   -0.12902E-07  6012   0.653E-04
  35 F= -.16107654E+04 E0= -.16107634E+04  d E =-.180848E-05
       N       E                     dE             d eps       ncg     rms          rms(c)
DAV:   1    -0.161076542511E+04   -0.20330E-05   -0.80085E-04 11956   0.360E-02    0.344E-03
DAV:   2    -0.161076542557E+04   -0.45831E-06   -0.44181E-06  6012   0.336E-03    0.253E-03
DAV:   3    -0.161076542579E+04   -0.21927E-06   -0.17260E-06  6010   0.193E-03    0.615E-04
DAV:   4    -0.161076542594E+04   -0.14847E-06   -0.79151E-07  6012   0.152E-03    0.393E-04
DAV:   5    -0.161076542594E+04   -0.39763E-08   -0.43306E-07  6012   0.116E-03
  36 F= -.16107654E+04 E0= -.16107634E+04  d E =-.284028E-05
