LAMMPS data file via write_data, version 2 Aug 2023, timestep = 0, units = metal

300 atoms
5 atom types

0 10.77 xlo xhi
0 17.95 ylo yhi
0 17.95 zlo zhi

Masses

1 58.933
2 58.69
3 51.96
4 55.847
5 54.94

Atoms # atomic

1 5 0 0 0 0 0 0
2 5 1.795 1.795 0 0 0 0
3 5 1.795 0 1.795 0 0 0
4 5 0 1.795 1.795 0 0 0
5 4 3.59 0 0 0 0 0
6 5 5.385 1.795 0 0 0 0
7 5 5.385 0 1.795 0 0 0
8 5 3.59 1.795 1.795 0 0 0
9 1 7.18 0 0 0 0 0
10 2 8.975 1.795 0 0 0 0
11 2 8.975 0 1.795 0 0 0
12 3 7.18 1.795 1.795 0 0 0
13 3 0 3.59 0 0 0 0
14 4 1.795 5.385 0 0 0 0
15 4 1.795 3.59 1.795 0 0 0
16 5 0 5.385 1.795 0 0 0
17 5 3.59 3.59 0 0 0 0
18 3 5.385 5.385 0 0 0 0
19 3 5.385 3.59 1.795 0 0 0
20 5 3.59 5.385 1.795 0 0 0
21 5 7.18 3.59 0 0 0 0
22 4 8.975 5.385 0 0 0 0
23 1 8.975 3.59 1.795 0 0 0
24 3 7.18 5.385 1.795 0 0 0
25 2 0 7.18 0 0 0 0
26 4 1.795 8.975 0 0 0 0
27 5 1.795 7.18 1.795 0 0 0
28 3 0 8.975 1.795 0 0 0
29 5 3.59 7.18 0 0 0 0
30 5 5.385 8.975 0 0 0 0
31 2 5.385 7.18 1.795 0 0 0
32 1 3.59 8.975 1.795 0 0 0
33 3 7.18 7.18 0 0 0 0
34 4 8.975 8.975 0 0 0 0
35 1 8.975 7.18 1.795 0 0 0
36 1 7.18 8.975 1.795 0 0 0
37 4 0 10.77 0 0 0 0
38 3 1.795 12.565 0 0 0 0
39 2 1.795 10.77 1.795 0 0 0
40 2 0 12.565 1.795 0 0 0
41 2 3.59 10.77 0 0 0 0
42 3 5.385 12.565 0 0 0 0
43 2 5.385 10.77 1.795 0 0 0
44 5 3.59 12.565 1.795 0 0 0
45 1 7.18 10.77 0 0 0 0
46 1 8.975 12.565 0 0 0 0
47 2 8.975 10.77 1.795 0 0 0
48 3 7.18 12.565 1.795 0 0 0
49 4 0 14.36 0 0 0 0
50 1 1.795 16.155 0 0 0 0
51 3 1.795 14.36 1.795 0 0 0
52 3 0 16.155 1.795 0 0 0
53 2 3.59 14.36 0 0 0 0
54 2 5.385 16.155 0 0 0 0
55 3 5.385 14.36 1.795 0 0 0
56 3 3.59 16.155 1.795 0 0 0
57 3 7.18 14.36 0 0 0 0
58 2 8.975 16.155 0 0 0 0
59 1 8.975 14.36 1.795 0 0 0
60 1 7.18 16.155 1.795 0 0 0
61 5 0 0 3.59 0 0 0
62 3 1.795 1.795 3.59 0 0 0
63 2 1.795 0 5.385 0 0 0
64 5 0 1.795 5.385 0 0 0
65 1 3.59 0 3.59 0 0 0
66 4 5.385 1.795 3.59 0 0 0
67 5 5.385 0 5.385 0 0 0
68 1 3.59 1.795 5.385 0 0 0
69 5 7.18 0 3.59 0 0 0
70 3 8.975 1.795 3.59 0 0 0
71 2 8.975 0 5.385 0 0 0
72 2 7.18 1.795 5.385 0 0 0
73 3 0 3.59 3.59 0 0 0
74 4 1.795 5.385 3.59 0 0 0
75 4 1.795 3.59 5.385 0 0 0
76 4 0 5.385 5.385 0 0 0
77 2 3.59 3.59 3.59 0 0 0
78 3 5.385 5.385 3.59 0 0 0
79 4 5.385 3.59 5.385 0 0 0
80 2 3.59 5.385 5.385 0 0 0
81 2 7.18 3.59 3.59 0 0 0
82 1 8.975 5.385 3.59 0 0 0
83 4 8.975 3.59 5.385 0 0 0
84 3 7.18 5.385 5.385 0 0 0
85 4 0 7.18 3.59 0 0 0
86 4 1.795 8.975 3.59 0 0 0
87 4 1.795 7.18 5.385 0 0 0
88 4 0 8.975 5.385 0 0 0
89 1 3.59 7.18 3.59 0 0 0
90 4 5.385 8.975 3.59 0 0 0
91 3 5.385 7.18 5.385 0 0 0
92 1 3.59 8.975 5.385 0 0 0
93 3 7.18 7.18 3.59 0 0 0
94 3 8.975 8.975 3.59 0 0 0
95 5 8.975 7.18 5.385 0 0 0
96 4 7.18 8.975 5.385 0 0 0
97 2 0 10.77 3.59 0 0 0
98 5 1.795 12.565 3.59 0 0 0
99 1 1.795 10.77 5.385 0 0 0
100 5 0 12.565 5.385 0 0 0
101 2 3.59 10.77 3.59 0 0 0
102 1 5.385 12.565 3.59 0 0 0
103 5 5.385 10.77 5.385 0 0 0
104 3 3.59 12.565 5.385 0 0 0
105 3 7.18 10.77 3.59 0 0 0
106 2 8.975 12.565 3.59 0 0 0
107 1 8.975 10.77 5.385 0 0 0
108 1 7.18 12.565 5.385 0 0 0
109 3 0 14.36 3.59 0 0 0
110 1 1.795 16.155 3.59 0 0 0
111 4 1.795 14.36 5.385 0 0 0
112 2 0 16.155 5.385 0 0 0
113 4 3.59 14.36 3.59 0 0 0
114 4 5.385 16.155 3.59 0 0 0
115 5 5.385 14.36 5.385 0 0 0
116 1 3.59 16.155 5.385 0 0 0
117 5 7.18 14.36 3.59 0 0 0
118 5 8.975 16.155 3.59 0 0 0
119 4 8.975 14.36 5.385 0 0 0
120 2 7.18 16.155 5.385 0 0 0
121 5 0 0 7.18 0 0 0
122 1 1.795 1.795 7.18 0 0 0
123 5 1.795 0 8.975 0 0 0
124 1 0 1.795 8.975 0 0 0
125 2 3.59 0 7.18 0 0 0
126 1 5.385 1.795 7.18 0 0 0
127 4 5.385 0 8.975 0 0 0
128 1 3.59 1.795 8.975 0 0 0
129 4 7.18 0 7.18 0 0 0
130 1 8.975 1.795 7.18 0 0 0
131 4 8.975 0 8.975 0 0 0
132 3 7.18 1.795 8.975 0 0 0
133 2 0 3.59 7.18 0 0 0
134 2 1.795 5.385 7.18 0 0 0
135 5 1.795 3.59 8.975 0 0 0
136 2 0 5.385 8.975 0 0 0
137 5 3.59 3.59 7.18 0 0 0
138 3 5.385 5.385 7.18 0 0 0
139 5 5.385 3.59 8.975 0 0 0
140 1 3.59 5.385 8.975 0 0 0
141 4 7.18 3.59 7.18 0 0 0
142 4 8.975 5.385 7.18 0 0 0
143 1 8.975 3.59 8.975 0 0 0
144 2 7.18 5.385 8.975 0 0 0
145 3 0 7.18 7.18 0 0 0
146 4 1.795 8.975 7.18 0 0 0
147 1 1.795 7.18 8.975 0 0 0
148 5 0 8.975 8.975 0 0 0
149 2 3.59 7.18 7.18 0 0 0
150 3 5.385 8.975 7.18 0 0 0
151 2 5.385 7.18 8.975 0 0 0
152 5 3.59 8.975 8.975 0 0 0
153 2 7.18 7.18 7.18 0 0 0
154 5 8.975 8.975 7.18 0 0 0
155 2 8.975 7.18 8.975 0 0 0
156 3 7.18 8.975 8.975 0 0 0
157 2 0 10.77 7.18 0 0 0
158 4 1.795 12.565 7.18 0 0 0
159 2 1.795 10.77 8.975 0 0 0
160 5 0 12.565 8.975 0 0 0
161 3 3.59 10.77 7.18 0 0 0
162 3 5.385 12.565 7.18 0 0 0
163 4 5.385 10.77 8.975 0 0 0
164 4 3.59 12.565 8.975 0 0 0
165 2 7.18 10.77 7.18 0 0 0
166 2 8.975 12.565 7.18 0 0 0
167 4 8.975 10.77 8.975 0 0 0
168 4 7.18 12.565 8.975 0 0 0
169 1 0 14.36 7.18 0 0 0
170 2 1.795 16.155 7.18 0 0 0
171 5 1.795 14.36 8.975 0 0 0
172 1 0 16.155 8.975 0 0 0
173 1 3.59 14.36 7.18 0 0 0
174 5 5.385 16.155 7.18 0 0 0
175 2 5.385 14.36 8.975 0 0 0
176 3 3.59 16.155 8.975 0 0 0
177 3 7.18 14.36 7.18 0 0 0
178 2 8.975 16.155 7.18 0 0 0
179 2 8.975 14.36 8.975 0 0 0
180 1 7.18 16.155 8.975 0 0 0
181 3 0 0 10.77 0 0 0
182 2 1.795 1.795 10.77 0 0 0
183 1 1.795 0 12.565 0 0 0
184 1 0 1.795 12.565 0 0 0
185 2 3.59 0 10.77 0 0 0
186 5 5.385 1.795 10.77 0 0 0
187 3 5.385 0 12.565 0 0 0
188 5 3.59 1.795 12.565 0 0 0
189 5 7.18 0 10.77 0 0 0
190 1 8.975 1.795 10.77 0 0 0
191 3 8.975 0 12.565 0 0 0
192 3 7.18 1.795 12.565 0 0 0
193 5 0 3.59 10.77 0 0 0
194 3 1.795 5.385 10.77 0 0 0
195 1 1.795 3.59 12.565 0 0 0
196 1 0 5.385 12.565 0 0 0
197 5 3.59 3.59 10.77 0 0 0
198 1 5.385 5.385 10.77 0 0 0
199 1 5.385 3.59 12.565 0 0 0
200 1 3.59 5.385 12.565 0 0 0
201 5 7.18 3.59 10.77 0 0 0
202 5 8.975 5.385 10.77 0 0 0
203 3 8.975 3.59 12.565 0 0 0
204 5 7.18 5.385 12.565 0 0 0
205 3 0 7.18 10.77 0 0 0
206 1 1.795 8.975 10.77 0 0 0
207 5 1.795 7.18 12.565 0 0 0
208 3 0 8.975 12.565 0 0 0
209 1 3.59 7.18 10.77 0 0 0
210 4 5.385 8.975 10.77 0 0 0
211 3 5.385 7.18 12.565 0 0 0
212 2 3.59 8.975 12.565 0 0 0
213 5 7.18 7.18 10.77 0 0 0
214 3 8.975 8.975 10.77 0 0 0
215 2 8.975 7.18 12.565 0 0 0
216 1 7.18 8.975 12.565 0 0 0
217 2 0 10.77 10.77 0 0 0
218 4 1.795 12.565 10.77 0 0 0
219 3 1.795 10.77 12.565 0 0 0
220 4 0 12.565 12.565 0 0 0
221 1 3.59 10.77 10.77 0 0 0
222 4 5.385 12.565 10.77 0 0 0
223 5 5.385 10.77 12.565 0 0 0
224 5 3.59 12.565 12.565 0 0 0
225 1 7.18 10.77 10.77 0 0 0
226 4 8.975 12.565 10.77 0 0 0
227 3 8.975 10.77 12.565 0 0 0
228 3 7.18 12.565 12.565 0 0 0
229 2 0 14.36 10.77 0 0 0
230 2 1.795 16.155 10.77 0 0 0
231 5 1.795 14.36 12.565 0 0 0
232 4 0 16.155 12.565 0 0 0
233 1 3.59 14.36 10.77 0 0 0
234 1 5.385 16.155 10.77 0 0 0
235 1 5.385 14.36 12.565 0 0 0
236 3 3.59 16.155 12.565 0 0 0
237 4 7.18 14.36 10.77 0 0 0
238 5 8.975 16.155 10.77 0 0 0
239 2 8.975 14.36 12.565 0 0 0
240 3 7.18 16.155 12.565 0 0 0
241 5 0 0 14.36 0 0 0
242 4 1.795 1.795 14.36 0 0 0
243 3 1.795 0 16.155 0 0 0
244 2 0 1.795 16.155 0 0 0
245 1 3.59 0 14.36 0 0 0
246 2 5.385 1.795 14.36 0 0 0
247 3 5.385 0 16.155 0 0 0
248 1 3.59 1.795 16.155 0 0 0
249 2 7.18 0 14.36 0 0 0
250 2 8.975 1.795 14.36 0 0 0
251 2 8.975 0 16.155 0 0 0
252 5 7.18 1.795 16.155 0 0 0
253 1 0 3.59 14.36 0 0 0
254 1 1.795 5.385 14.36 0 0 0
255 3 1.795 3.59 16.155 0 0 0
256 1 0 5.385 16.155 0 0 0
257 3 3.59 3.59 14.36 0 0 0
258 4 5.385 5.385 14.36 0 0 0
259 1 5.385 3.59 16.155 0 0 0
260 4 3.59 5.385 16.155 0 0 0
261 1 7.18 3.59 14.36 0 0 0
262 2 8.975 5.385 14.36 0 0 0
263 3 8.975 3.59 16.155 0 0 0
264 4 7.18 5.385 16.155 0 0 0
265 2 0 7.18 14.36 0 0 0
266 3 1.795 8.975 14.36 0 0 0
267 4 1.795 7.18 16.155 0 0 0
268 5 0 8.975 16.155 0 0 0
269 4 3.59 7.18 14.36 0 0 0
270 5 5.385 8.975 14.36 0 0 0
271 5 5.385 7.18 16.155 0 0 0
272 2 3.59 8.975 16.155 0 0 0
273 4 7.18 7.18 14.36 0 0 0
274 4 8.975 8.975 14.36 0 0 0
275 4 8.975 7.18 16.155 0 0 0
276 4 7.18 8.975 16.155 0 0 0
277 2 0 10.77 14.36 0 0 0
278 5 1.795 12.565 14.36 0 0 0
279 4 1.795 10.77 16.155 0 0 0
280 4 0 12.565 16.155 0 0 0
281 2 3.59 10.77 14.36 0 0 0
282 5 5.385 12.565 14.36 0 0 0
283 3 5.385 10.77 16.155 0 0 0
284 4 3.59 12.565 16.155 0 0 0
285 4 7.18 10.77 14.36 0 0 0
286 3 8.975 12.565 14.36 0 0 0
287 3 8.975 10.77 16.155 0 0 0
288 4 7.18 12.565 16.155 0 0 0
289 1 0 14.36 14.36 0 0 0
290 4 1.795 16.155 14.36 0 0 0
291 2 1.795 14.36 16.155 0 0 0
292 1 0 16.155 16.155 0 0 0
293 2 3.59 14.36 14.36 0 0 0
294 5 5.385 16.155 14.36 0 0 0
295 1 5.385 14.36 16.155 0 0 0
296 1 3.59 16.155 16.155 0 0 0
297 5 7.18 14.36 14.36 0 0 0
298 4 8.975 16.155 14.36 0 0 0
299 4 8.975 14.36 16.155 0 0 0
300 3 7.18 16.155 16.155 0 0 0

Velocities

1 0 0 0
2 0 0 0
3 0 0 0
4 0 0 0
5 0 0 0
6 0 0 0
7 0 0 0
8 0 0 0
9 0 0 0
10 0 0 0
11 0 0 0
12 0 0 0
13 0 0 0
14 0 0 0
15 0 0 0
16 0 0 0
17 0 0 0
18 0 0 0
19 0 0 0
20 0 0 0
21 0 0 0
22 0 0 0
23 0 0 0
24 0 0 0
25 0 0 0
26 0 0 0
27 0 0 0
28 0 0 0
29 0 0 0
30 0 0 0
31 0 0 0
32 0 0 0
33 0 0 0
34 0 0 0
35 0 0 0
36 0 0 0
37 0 0 0
38 0 0 0
39 0 0 0
40 0 0 0
41 0 0 0
42 0 0 0
43 0 0 0
44 0 0 0
45 0 0 0
46 0 0 0
47 0 0 0
48 0 0 0
49 0 0 0
50 0 0 0
51 0 0 0
52 0 0 0
53 0 0 0
54 0 0 0
55 0 0 0
56 0 0 0
57 0 0 0
58 0 0 0
59 0 0 0
60 0 0 0
61 0 0 0
62 0 0 0
63 0 0 0
64 0 0 0
65 0 0 0
66 0 0 0
67 0 0 0
68 0 0 0
69 0 0 0
70 0 0 0
71 0 0 0
72 0 0 0
73 0 0 0
74 0 0 0
75 0 0 0
76 0 0 0
77 0 0 0
78 0 0 0
79 0 0 0
80 0 0 0
81 0 0 0
82 0 0 0
83 0 0 0
84 0 0 0
85 0 0 0
86 0 0 0
87 0 0 0
88 0 0 0
89 0 0 0
90 0 0 0
91 0 0 0
92 0 0 0
93 0 0 0
94 0 0 0
95 0 0 0
96 0 0 0
97 0 0 0
98 0 0 0
99 0 0 0
100 0 0 0
101 0 0 0
102 0 0 0
103 0 0 0
104 0 0 0
105 0 0 0
106 0 0 0
107 0 0 0
108 0 0 0
109 0 0 0
110 0 0 0
111 0 0 0
112 0 0 0
113 0 0 0
114 0 0 0
115 0 0 0
116 0 0 0
117 0 0 0
118 0 0 0
119 0 0 0
120 0 0 0
121 0 0 0
122 0 0 0
123 0 0 0
124 0 0 0
125 0 0 0
126 0 0 0
127 0 0 0
128 0 0 0
129 0 0 0
130 0 0 0
131 0 0 0
132 0 0 0
133 0 0 0
134 0 0 0
135 0 0 0
136 0 0 0
137 0 0 0
138 0 0 0
139 0 0 0
140 0 0 0
141 0 0 0
142 0 0 0
143 0 0 0
144 0 0 0
145 0 0 0
146 0 0 0
147 0 0 0
148 0 0 0
149 0 0 0
150 0 0 0
151 0 0 0
152 0 0 0
153 0 0 0
154 0 0 0
155 0 0 0
156 0 0 0
157 0 0 0
158 0 0 0
159 0 0 0
160 0 0 0
161 0 0 0
162 0 0 0
163 0 0 0
164 0 0 0
165 0 0 0
166 0 0 0
167 0 0 0
168 0 0 0
169 0 0 0
170 0 0 0
171 0 0 0
172 0 0 0
173 0 0 0
174 0 0 0
175 0 0 0
176 0 0 0
177 0 0 0
178 0 0 0
179 0 0 0
180 0 0 0
181 0 0 0
182 0 0 0
183 0 0 0
184 0 0 0
185 0 0 0
186 0 0 0
187 0 0 0
188 0 0 0
189 0 0 0
190 0 0 0
191 0 0 0
192 0 0 0
193 0 0 0
194 0 0 0
195 0 0 0
196 0 0 0
197 0 0 0
198 0 0 0
199 0 0 0
200 0 0 0
201 0 0 0
202 0 0 0
203 0 0 0
204 0 0 0
205 0 0 0
206 0 0 0
207 0 0 0
208 0 0 0
209 0 0 0
210 0 0 0
211 0 0 0
212 0 0 0
213 0 0 0
214 0 0 0
215 0 0 0
216 0 0 0
217 0 0 0
218 0 0 0
219 0 0 0
220 0 0 0
221 0 0 0
222 0 0 0
223 0 0 0
224 0 0 0
225 0 0 0
226 0 0 0
227 0 0 0
228 0 0 0
229 0 0 0
230 0 0 0
231 0 0 0
232 0 0 0
233 0 0 0
234 0 0 0
235 0 0 0
236 0 0 0
237 0 0 0
238 0 0 0
239 0 0 0
240 0 0 0
241 0 0 0
242 0 0 0
243 0 0 0
244 0 0 0
245 0 0 0
246 0 0 0
247 0 0 0
248 0 0 0
249 0 0 0
250 0 0 0
251 0 0 0
252 0 0 0
253 0 0 0
254 0 0 0
255 0 0 0
256 0 0 0
257 0 0 0
258 0 0 0
259 0 0 0
260 0 0 0
261 0 0 0
262 0 0 0
263 0 0 0
264 0 0 0
265 0 0 0
266 0 0 0
267 0 0 0
268 0 0 0
269 0 0 0
270 0 0 0
271 0 0 0
272 0 0 0
273 0 0 0
274 0 0 0
275 0 0 0
276 0 0 0
277 0 0 0
278 0 0 0
279 0 0 0
280 0 0 0
281 0 0 0
282 0 0 0
283 0 0 0
284 0 0 0
285 0 0 0
286 0 0 0
287 0 0 0
288 0 0 0
289 0 0 0
290 0 0 0
291 0 0 0
292 0 0 0
293 0 0 0
294 0 0 0
295 0 0 0
296 0 0 0
297 0 0 0
298 0 0 0
299 0 0 0
300 0 0 0
