       N       E                     dE             d eps       ncg     rms          rms(c)
DAV:   1     0.258273402971E+04    0.25827E+04   -0.30921E+05 12264   0.144E+03
DAV:   2    -0.119574940878E+04   -0.37785E+04   -0.36168E+04 14100   0.333E+02
DAV:   3    -0.168668148150E+04   -0.49093E+03   -0.46450E+03 18760   0.826E+01
DAV:   4    -0.171188785574E+04   -0.25206E+02   -0.24334E+02 17288   0.184E+01
DAV:   5    -0.171291914265E+04   -0.10313E+01   -0.10149E+01 19136   0.383E+00    0.448E+01
DAV:   6    -0.165753536284E+04    0.55384E+02   -0.11343E+02 18264   0.139E+01    0.234E+01
DAV:   7    -0.164234919083E+04    0.15186E+02   -0.75500E+01 17552   0.132E+01    0.133E+01
DAV:   8    -0.163386766372E+04    0.84815E+01   -0.37844E+01 17592   0.114E+01    0.480E+00
DAV:   9    -0.163297389397E+04    0.89377E+00   -0.12552E+01 18000   0.569E+00    0.205E+00
DAV:  10    -0.163297792079E+04   -0.40268E-02   -0.18323E+00 15464   0.203E+00    0.145E+00
DAV:  11    -0.163294420815E+04    0.33713E-01   -0.46805E-01 17016   0.866E-01    0.706E-01
DAV:  12    -0.163293220291E+04    0.12005E-01   -0.64286E-02 17296   0.370E-01    0.348E-01
DAV:  13    -0.163292787962E+04    0.43233E-02   -0.17641E-02 16736   0.215E-01    0.138E-01
DAV:  14    -0.163292746230E+04    0.41732E-03   -0.60140E-03 15392   0.119E-01    0.536E-02
DAV:  15    -0.163292748778E+04   -0.25474E-04   -0.13967E-03 14656   0.599E-02    0.268E-02
DAV:  16    -0.163292748229E+04    0.54881E-05   -0.26991E-04 15896   0.261E-02    0.150E-02
DAV:  17    -0.163292747219E+04    0.10100E-04   -0.46428E-05 10448   0.128E-02    0.777E-03
DAV:  18    -0.163292746607E+04    0.61221E-05   -0.15361E-05  8232   0.702E-03
   1 F= -.16329275E+04 E0= -.16329109E+04  d E =-.163293E+04
       N       E                     dE             d eps       ncg     rms          rms(c)
DAV:   1    -0.163381514510E+04   -0.88767E+00   -0.32819E+02 12264   0.249E+01    0.681E+00
DAV:   2    -0.163180925763E+04    0.20059E+01   -0.82820E+00 16800   0.388E+00    0.323E+00
DAV:   3    -0.163139926649E+04    0.40999E+00   -0.23428E+00 16680   0.227E+00    0.200E+00
DAV:   4    -0.163121955825E+04    0.17971E+00   -0.81701E-01 16960   0.173E+00    0.974E-01
DAV:   5    -0.163117059487E+04    0.48963E-01   -0.37063E-01 16016   0.109E+00    0.356E-01
DAV:   6    -0.163117300519E+04   -0.24103E-02   -0.70322E-02 14952   0.416E-01    0.259E-01
DAV:   7    -0.163117395817E+04   -0.95298E-03   -0.14361E-02 16552   0.158E-01    0.148E-01
DAV:   8    -0.163117476690E+04   -0.80874E-03   -0.43823E-03 16256   0.102E-01    0.811E-02
DAV:   9    -0.163117460932E+04    0.15758E-03   -0.12169E-03 15872   0.654E-02    0.414E-02
DAV:  10    -0.163117455207E+04    0.57248E-04   -0.69226E-04 16992   0.337E-02    0.181E-02
DAV:  11    -0.163117456431E+04   -0.12233E-04   -0.76659E-05 13928   0.134E-02    0.104E-02
DAV:  12    -0.163117457154E+04   -0.72378E-05   -0.14340E-05  7912   0.662E-03
   2 F= -.16311746E+04 E0= -.16311680E+04  d E =0.175289E+01
       N       E                     dE             d eps       ncg     rms          rms(c)
DAV:   1    -0.163564110015E+04   -0.44665E+01   -0.84191E+01 12264   0.147E+01    0.507E+00
DAV:   2    -0.163440315905E+04    0.12379E+01   -0.19138E+00 12824   0.206E+00    0.233E+00
DAV:   3    -0.163412543752E+04    0.27772E+00   -0.75066E-01 14304   0.138E+00    0.890E-01
DAV:   4    -0.163408356969E+04    0.41868E-01   -0.21538E-01 15088   0.946E-01    0.367E-01
DAV:   5    -0.163407703213E+04    0.65376E-02   -0.77223E-02 15120   0.527E-01    0.145E-01
DAV:   6    -0.163407866130E+04   -0.16292E-02   -0.16740E-02 15656   0.200E-01    0.104E-01
DAV:   7    -0.163407947690E+04   -0.81559E-03   -0.28255E-03 16608   0.716E-02    0.601E-02
DAV:   8    -0.163407993699E+04   -0.46009E-03   -0.59631E-04 14776   0.384E-02    0.312E-02
DAV:   9    -0.163408008201E+04   -0.14502E-03   -0.25997E-04 15224   0.250E-02    0.161E-02
DAV:  10    -0.163408015200E+04   -0.69996E-04   -0.13885E-04 14592   0.168E-02    0.816E-03
DAV:  11    -0.163408015538E+04   -0.33795E-05   -0.17165E-05  7760   0.728E-03
   3 F= -.16340802E+04 E0= -.16340674E+04  d E =-.290558E+01
       N       E                     dE             d eps       ncg     rms          rms(c)
DAV:   1    -0.163413636302E+04   -0.56211E-01   -0.55289E+00 12264   0.306E+00    0.552E-01
DAV:   2    -0.163413212008E+04    0.42429E-02   -0.97263E-02 17640   0.466E-01    0.317E-01
DAV:   3    -0.163412948041E+04    0.26397E-02   -0.22550E-02 18784   0.258E-01    0.229E-01
DAV:   4    -0.163412716629E+04    0.23141E-02   -0.82217E-03 17616   0.164E-01    0.942E-02
DAV:   5    -0.163412681250E+04    0.35379E-03   -0.30767E-03 15672   0.910E-02    0.368E-02
DAV:   6    -0.163412683360E+04   -0.21093E-04   -0.49488E-04 15928   0.327E-02    0.261E-02
DAV:   7    -0.163412683376E+04   -0.15965E-06   -0.87340E-05 14280   0.149E-02
   4 F= -.16341268E+04 E0= -.16341146E+04  d E =-.466784E-01
       N       E                     dE             d eps       ncg     rms          rms(c)
DAV:   1    -0.163412943735E+04   -0.26038E-02   -0.49942E-01 12396   0.889E-01    0.109E-01
DAV:   2    -0.163412976883E+04   -0.33148E-03   -0.79162E-03 17216   0.141E-01    0.724E-02
DAV:   3    -0.163412960765E+04    0.16118E-03   -0.15599E-03 18336   0.706E-02    0.533E-02
DAV:   4    -0.163412954814E+04    0.59504E-04   -0.31049E-04 17768   0.297E-02    0.300E-02
DAV:   5    -0.163412953418E+04    0.13967E-04   -0.17131E-04 14400   0.190E-02    0.802E-03
DAV:   6    -0.163412953252E+04    0.16565E-05   -0.17640E-05  8424   0.809E-03
   5 F= -.16341295E+04 E0= -.16341174E+04  d E =-.269876E-02
       N       E                     dE             d eps       ncg     rms          rms(c)
DAV:   1    -0.163413000490E+04   -0.47072E-03   -0.10116E-01 12434   0.411E-01    0.675E-02
DAV:   2    -0.163412998661E+04    0.18290E-04   -0.14235E-03 16384   0.678E-02    0.402E-02
DAV:   3    -0.163412994350E+04    0.43110E-04   -0.41599E-04 18330   0.376E-02    0.291E-02
DAV:   4    -0.163412993444E+04    0.90551E-05   -0.11399E-04 15456   0.186E-02    0.114E-02
DAV:   5    -0.163412994498E+04   -0.10541E-04   -0.34664E-05  8920   0.955E-03    0.413E-03
DAV:   6    -0.163412994533E+04   -0.34709E-06   -0.63112E-06  7120   0.589E-03
   6 F= -.16341299E+04 E0= -.16341177E+04  d E =-.412811E-03
       N       E                     dE             d eps       ncg     rms          rms(c)
DAV:   1    -0.163413041362E+04   -0.46864E-03   -0.11272E-02 12488   0.162E-01    0.535E-02
DAV:   2    -0.163413023194E+04    0.18168E-03   -0.25307E-04 14752   0.248E-02    0.253E-02
DAV:   3    -0.163413018254E+04    0.49402E-04   -0.11096E-04 15272   0.190E-02    0.148E-02
DAV:   4    -0.163413015047E+04    0.32073E-04   -0.43118E-05 11056   0.149E-02    0.507E-03
DAV:   5    -0.163413014069E+04    0.97717E-05   -0.15780E-05  6928   0.675E-03
   7 F= -.16341301E+04 E0= -.16341180E+04  d E =-.195362E-03
       N       E                     dE             d eps       ncg     rms          rms(c)
DAV:   1    -0.163413028034E+04   -0.12988E-03   -0.16543E-02 12432   0.164E-01    0.223E-02
DAV:   2    -0.163413029504E+04   -0.14702E-04   -0.18686E-04 16280   0.259E-02    0.152E-02
DAV:   3    -0.163413028876E+04    0.62890E-05   -0.41226E-05 11232   0.132E-02    0.109E-02
DAV:   4    -0.163413029524E+04   -0.64891E-05   -0.17900E-05  7128   0.708E-03    0.228E-03
DAV:   5    -0.163413029665E+04   -0.14065E-05   -0.43061E-06  6832   0.440E-03
   8 F= -.16341303E+04 E0= -.16341182E+04  d E =-.155958E-03
       N       E                     dE             d eps       ncg     rms          rms(c)
DAV:   1    -0.163413035061E+04   -0.55364E-04   -0.68468E-03 12432   0.104E-01    0.126E-02
DAV:   2    -0.163413034881E+04    0.17988E-05   -0.72054E-05 14856   0.167E-02    0.929E-03
DAV:   3    -0.163413034373E+04    0.50830E-05   -0.16184E-05  8808   0.855E-03    0.661E-03
DAV:   4    -0.163413033840E+04    0.53305E-05   -0.98378E-06  6752   0.467E-03    0.144E-03
DAV:   5    -0.163413033828E+04    0.11647E-06   -0.27161E-06  6712   0.335E-03
   9 F= -.16341303E+04 E0= -.16341182E+04  d E =-.416288E-04
       N       E                     dE             d eps       ncg     rms          rms(c)
DAV:   1    -0.163413034793E+04   -0.95360E-05   -0.13866E-03 12464   0.499E-02    0.108E-02
DAV:   2    -0.163413035263E+04   -0.46962E-05   -0.13405E-05  7008   0.674E-03    0.581E-03
DAV:   3    -0.163413035632E+04   -0.36887E-05   -0.59475E-06  6824   0.555E-03    0.334E-03
DAV:   4    -0.163413036012E+04   -0.38031E-05   -0.33819E-06  6696   0.418E-03    0.106E-03
DAV:   5    -0.163413036130E+04   -0.11754E-05   -0.15116E-06  6680   0.234E-03
  10 F= -.16341304E+04 E0= -.16341182E+04  d E =-.230157E-04
       N       E                     dE             d eps       ncg     rms          rms(c)
DAV:   1    -0.163413038828E+04   -0.28158E-04   -0.12216E-03 12448   0.455E-02    0.825E-03
DAV:   2    -0.163413038027E+04    0.80120E-05   -0.11038E-05  7104   0.635E-03    0.470E-03
DAV:   3    -0.163413037741E+04    0.28530E-05   -0.39727E-06  6664   0.479E-03    0.309E-03
DAV:   4    -0.163413037363E+04    0.37834E-05   -0.25016E-06  6600   0.329E-03    0.950E-04
DAV:   5    -0.163413037293E+04    0.69738E-06   -0.11562E-06  6592   0.210E-03
  11 F= -.16341304E+04 E0= -.16341182E+04  d E =-.116370E-04
       N       E                     dE             d eps       ncg     rms          rms(c)
DAV:   1    -0.163413038400E+04   -0.10369E-04   -0.14157E-03 12432   0.473E-02    0.517E-03
DAV:   2    -0.163413038561E+04   -0.16117E-05   -0.92257E-06  6992   0.552E-03    0.370E-03
DAV:   3    -0.163413038603E+04   -0.41709E-06   -0.29446E-06  6568   0.350E-03    0.266E-03
DAV:   4    -0.163413038730E+04   -0.12733E-05   -0.21697E-06  6456   0.260E-03    0.465E-04
DAV:   5    -0.163413038724E+04    0.57077E-07   -0.97775E-07  6456   0.189E-03
  12 F= -.16341304E+04 E0= -.16341182E+04  d E =-.143117E-04
       N       E                     dE             d eps       ncg     rms          rms(c)
DAV:   1    -0.163413039929E+04   -0.11989E-04   -0.11659E-03 12432   0.433E-02    0.558E-03
DAV:   2    -0.163413039587E+04    0.34175E-05   -0.82096E-06  6624   0.496E-03    0.358E-03
DAV:   3    -0.163413039438E+04    0.14941E-05   -0.29403E-06  6456   0.334E-03    0.228E-03
DAV:   4    -0.163413039234E+04    0.20371E-05   -0.17487E-06  6408   0.261E-03    0.658E-04
DAV:   5    -0.163413039219E+04    0.14703E-06   -0.92742E-07  6408   0.179E-03
  13 F= -.16341304E+04 E0= -.16341183E+04  d E =-.495015E-05
       N       E                     dE             d eps       ncg     rms          rms(c)
DAV:   1    -0.163413039260E+04   -0.25590E-06   -0.85228E-05 12128   0.131E-02    0.371E-03
DAV:   2    -0.163413039526E+04   -0.26611E-05   -0.15392E-06  6408   0.193E-03    0.181E-03
DAV:   3    -0.163413039745E+04   -0.21956E-05   -0.76620E-07  6408   0.138E-03    0.630E-04
DAV:   4    -0.163413039830E+04   -0.84523E-06   -0.31270E-07  6408   0.101E-03    0.319E-04
DAV:   5    -0.163413039863E+04   -0.33220E-06   -0.15688E-07  6408   0.705E-04
  14 F= -.16341304E+04 E0= -.16341183E+04  d E =-.643710E-05
       N       E                     dE             d eps       ncg     rms          rms(c)
DAV:   1    -0.163413040545E+04   -0.71520E-05   -0.67148E-04 12432   0.326E-02    0.338E-03
DAV:   2    -0.163413040497E+04    0.47742E-06   -0.38356E-06  6384   0.330E-03    0.244E-03
DAV:   3    -0.163413040460E+04    0.37347E-06   -0.12588E-06  6384   0.193E-03    0.139E-03
DAV:   4    -0.163413040408E+04    0.52418E-06   -0.78086E-07  6384   0.163E-03    0.321E-04
DAV:   5    -0.163413040420E+04   -0.12863E-06   -0.37852E-07  6384   0.112E-03
  15 F= -.16341304E+04 E0= -.16341183E+04  d E =-.557331E-05
       N       E                     dE             d eps       ncg     rms          rms(c)
DAV:   1    -0.163413040997E+04   -0.58964E-05   -0.18924E-03 12432   0.548E-02    0.578E-03
DAV:   2    -0.163413041207E+04   -0.21003E-05   -0.10799E-05  7088   0.545E-03    0.410E-03
DAV:   3    -0.163413041360E+04   -0.15303E-05   -0.40195E-06  6648   0.315E-03    0.121E-03
DAV:   4    -0.163413041434E+04   -0.74082E-06   -0.18580E-06  6456   0.255E-03    0.487E-04
DAV:   5    -0.163413041425E+04    0.89552E-07   -0.10137E-06  6424   0.180E-03
  16 F= -.16341304E+04 E0= -.16341183E+04  d E =-.100496E-04
       N       E                     dE             d eps       ncg     rms          rms(c)
DAV:   1    -0.163413041598E+04   -0.16345E-05   -0.24059E-04 12312   0.206E-02    0.387E-03
DAV:   2    -0.163413041220E+04    0.37823E-05   -0.15359E-06  6384   0.204E-03    0.208E-03
DAV:   3    -0.163413040947E+04    0.27273E-05   -0.71824E-07  6384   0.120E-03    0.602E-04
DAV:   4    -0.163413040869E+04    0.78058E-06   -0.16949E-07  6384   0.754E-04    0.272E-04
DAV:   5    -0.163413040848E+04    0.20412E-06   -0.54896E-08  6384   0.436E-04
  17 F= -.16341304E+04 E0= -.16341183E+04  d E =0.577018E-05
       N       E                     dE             d eps       ncg     rms          rms(c)
DAV:   1    -0.163413041210E+04   -0.34142E-05   -0.60882E-04 12432   0.311E-02    0.313E-03
DAV:   2    -0.163413041292E+04   -0.81973E-06   -0.30956E-06  6384   0.292E-03    0.224E-03
DAV:   3    -0.163413041368E+04   -0.76136E-06   -0.11406E-06  6384   0.157E-03    0.394E-04
DAV:   4    -0.163413041384E+04   -0.15846E-06   -0.44408E-07  6384   0.115E-03    0.250E-04
DAV:   5    -0.163413041380E+04    0.41757E-07   -0.23908E-07  6384   0.852E-04
  18 F= -.16341304E+04 E0= -.16341183E+04  d E =-.531616E-05
       N       E                     dE             d eps       ncg     rms          rms(c)
DAV:   1    -0.163413041852E+04   -0.46754E-05   -0.11754E-03 12432   0.431E-02    0.437E-03
DAV:   2    -0.163413041817E+04    0.34342E-06   -0.65933E-06  6384   0.425E-03    0.317E-03
DAV:   3    -0.163413041736E+04    0.81298E-06   -0.25910E-06  6384   0.239E-03    0.530E-04
DAV:   4    -0.163413041736E+04    0.53706E-09   -0.10864E-06  6384   0.175E-03    0.360E-04
DAV:   5    -0.163413041746E+04   -0.10431E-06   -0.60059E-07  6384   0.133E-03
  19 F= -.16341304E+04 E0= -.16341183E+04  d E =-.366450E-05
       N       E                     dE             d eps       ncg     rms          rms(c)
DAV:   1    -0.163413041347E+04    0.38870E-05   -0.18697E-04 12208   0.182E-02    0.364E-03
DAV:   2    -0.163413041594E+04   -0.24699E-05   -0.13355E-06  6384   0.189E-03    0.192E-03
DAV:   3    -0.163413041794E+04   -0.19980E-05   -0.60126E-07  6384   0.117E-03    0.707E-04
DAV:   4    -0.163413041869E+04   -0.74378E-06   -0.17745E-07  6384   0.873E-04    0.362E-04
DAV:   5    -0.163413041901E+04   -0.32157E-06   -0.66972E-08  6384   0.537E-04
  20 F= -.16341304E+04 E0= -.16341183E+04  d E =-.154183E-05
       N       E                     dE             d eps       ncg     rms          rms(c)
DAV:   1    -0.163413042368E+04   -0.49966E-05   -0.39745E-04 12336   0.253E-02    0.299E-03
DAV:   2    -0.163413042202E+04    0.16616E-05   -0.21600E-06  6384   0.244E-03    0.195E-03
DAV:   3    -0.163413042057E+04    0.14489E-05   -0.76720E-07  6384   0.130E-03    0.623E-04
DAV:   4    -0.163413042014E+04    0.43028E-06   -0.31125E-07  6384   0.991E-04    0.295E-04
DAV:   5    -0.163413042013E+04    0.86793E-08   -0.15728E-07  6384   0.728E-04
  21 F= -.16341304E+04 E0= -.16341183E+04  d E =-.112564E-05
       N       E                     dE             d eps       ncg     rms          rms(c)
DAV:   1    -0.163413042136E+04   -0.12177E-05   -0.20309E-04 12208   0.179E-02    0.185E-03
DAV:   2    -0.163413042153E+04   -0.17166E-06   -0.13121E-06  6384   0.189E-03    0.135E-03
DAV:   3    -0.163413042167E+04   -0.13562E-06   -0.55437E-07  6384   0.109E-03    0.222E-04
DAV:   4    -0.163413042169E+04   -0.19127E-07   -0.22763E-07  6384   0.744E-04    0.139E-04
DAV:   5    -0.163413042169E+04   -0.53028E-08   -0.12723E-07  6384   0.572E-04
  22 F= -.16341304E+04 E0= -.16341183E+04  d E =-.155811E-05
       N       E                     dE             d eps       ncg     rms          rms(c)
DAV:   1    -0.163413042461E+04   -0.29245E-05   -0.24871E-04 12280   0.202E-02    0.287E-03
DAV:   2    -0.163413042248E+04    0.21307E-05   -0.17736E-06  6384   0.219E-03    0.172E-03
DAV:   3    -0.163413042091E+04    0.15662E-05   -0.71103E-07  6384   0.130E-03    0.625E-04
DAV:   4    -0.163413042036E+04    0.55140E-06   -0.30831E-07  6384   0.101E-03    0.327E-04
DAV:   5    -0.163413042025E+04    0.11428E-06   -0.16182E-07  6384   0.737E-04
  23 F= -.16341304E+04 E0= -.16341183E+04  d E =0.144337E-05
