       N       E                     dE             d eps       ncg     rms          rms(c)
DAV:   1     0.237601820859E+04    0.23760E+04   -0.29942E+05 11936   0.144E+03
DAV:   2    -0.119532201211E+04   -0.35713E+04   -0.34217E+04 13756   0.314E+02
DAV:   3    -0.165522102873E+04   -0.45990E+03   -0.42995E+03 18384   0.823E+01
DAV:   4    -0.168012128903E+04   -0.24900E+02   -0.23566E+02 16744   0.177E+01
DAV:   5    -0.168115768265E+04   -0.10364E+01   -0.10195E+01 18552   0.403E+00    0.424E+01
DAV:   6    -0.163300959769E+04    0.48148E+02   -0.11065E+02 18032   0.141E+01    0.229E+01
DAV:   7    -0.162203840392E+04    0.10971E+02   -0.83054E+01 18280   0.151E+01    0.162E+01
DAV:   8    -0.161004997416E+04    0.11988E+02   -0.50646E+01 17752   0.123E+01    0.699E+00
DAV:   9    -0.160785119719E+04    0.21988E+01   -0.18128E+01 17144   0.652E+00    0.233E+00
DAV:  10    -0.160788237808E+04   -0.31181E-01   -0.25006E+00 15992   0.225E+00    0.158E+00
DAV:  11    -0.160784469161E+04    0.37686E-01   -0.42840E-01 15968   0.868E-01    0.821E-01
DAV:  12    -0.160783529228E+04    0.93993E-02   -0.11834E-01 15432   0.573E-01    0.534E-01
DAV:  13    -0.160782551335E+04    0.97789E-02   -0.35331E-02 16712   0.354E-01    0.303E-01
DAV:  14    -0.160782227833E+04    0.32350E-02   -0.13280E-02 15392   0.170E-01    0.121E-01
DAV:  15    -0.160782202685E+04    0.25149E-03   -0.49027E-03 16344   0.976E-02    0.466E-02
DAV:  16    -0.160782202319E+04    0.36587E-05   -0.79070E-04 17000   0.476E-02    0.300E-02
DAV:  17    -0.160782199023E+04    0.32961E-04   -0.25873E-04 16736   0.277E-02    0.153E-02
DAV:  18    -0.160782197852E+04    0.11708E-04   -0.62551E-05 12304   0.129E-02    0.874E-03
DAV:  19    -0.160782197374E+04    0.47819E-05   -0.18718E-05  7808   0.730E-03
   1 F= -.16078220E+04 E0= -.16077973E+04  d E =-.160782E+04
       N       E                     dE             d eps       ncg     rms          rms(c)
DAV:   1    -0.161061042632E+04   -0.27884E+01   -0.89659E+02 11928   0.438E+01    0.150E+01
DAV:   2    -0.160048825335E+04    0.10122E+02   -0.39786E+01 17560   0.808E+00    0.716E+00
DAV:   3    -0.159829253052E+04    0.21957E+01   -0.15580E+01 17536   0.511E+00    0.465E+00
DAV:   4    -0.159750480736E+04    0.78772E+00   -0.49006E+00 18032   0.387E+00    0.294E+00
DAV:   5    -0.159698750309E+04    0.51730E+00   -0.28399E+00 17528   0.280E+00    0.958E-01
DAV:   6    -0.159697473801E+04    0.12765E-01   -0.59208E-01 15720   0.116E+00    0.618E-01
DAV:   7    -0.159697559105E+04   -0.85304E-03   -0.99642E-02 16416   0.448E-01    0.425E-01
DAV:   8    -0.159697546811E+04    0.12294E-03   -0.30949E-02 16760   0.234E-01    0.225E-01
DAV:   9    -0.159697795392E+04   -0.24858E-02   -0.18228E-02 16656   0.163E-01    0.162E-01
DAV:  10    -0.159697714692E+04    0.80700E-03   -0.45438E-03 16584   0.104E-01    0.736E-02
DAV:  11    -0.159697704196E+04    0.10496E-03   -0.15281E-03 17856   0.536E-02    0.412E-02
DAV:  12    -0.159697707556E+04   -0.33603E-04   -0.73816E-04 17720   0.373E-02    0.312E-02
DAV:  13    -0.159697708645E+04   -0.10884E-04   -0.20874E-04 16376   0.190E-02    0.108E-02
DAV:  14    -0.159697709067E+04   -0.42255E-05   -0.29321E-05  8256   0.904E-03
   2 F= -.15969771E+04 E0= -.15969933E+04  d E =0.108449E+02
       N       E                     dE             d eps       ncg     rms          rms(c)
DAV:   1    -0.161813976047E+04   -0.21163E+02   -0.36286E+02 11928   0.312E+01    0.108E+01
DAV:   2    -0.161268718628E+04    0.54526E+01   -0.11534E+01 14908   0.506E+00    0.485E+00
DAV:   3    -0.161161792664E+04    0.10693E+01   -0.39375E+00 15144   0.293E+00    0.279E+00
DAV:   4    -0.161126168796E+04    0.35624E+00   -0.17619E+00 16792   0.260E+00    0.150E+00
DAV:   5    -0.161112159667E+04    0.14009E+00   -0.86758E-01 16448   0.164E+00    0.439E-01
DAV:   6    -0.161112672145E+04   -0.51248E-02   -0.15307E-01 15048   0.597E-01    0.307E-01
DAV:   7    -0.161112930746E+04   -0.25860E-02   -0.22783E-02 15552   0.215E-01    0.184E-01
DAV:   8    -0.161113149901E+04   -0.21916E-02   -0.65922E-03 15672   0.121E-01    0.976E-02
DAV:   9    -0.161113258209E+04   -0.10831E-02   -0.25896E-03 14128   0.797E-02    0.564E-02
DAV:  10    -0.161113286301E+04   -0.28092E-03   -0.11904E-03 15480   0.471E-02    0.254E-02
DAV:  11    -0.161113299524E+04   -0.13223E-03   -0.26897E-04 16592   0.245E-02    0.197E-02
DAV:  12    -0.161113302895E+04   -0.33704E-04   -0.63842E-05 12528   0.141E-02    0.125E-02
DAV:  13    -0.161113303038E+04   -0.14355E-05   -0.25357E-05  7640   0.753E-03
   3 F= -.16111330E+04 E0= -.16111279E+04  d E =-.141559E+02
       N       E                     dE             d eps       ncg     rms          rms(c)
DAV:   1    -0.161118962521E+04   -0.56596E-01   -0.97368E+00 11928   0.400E+00    0.504E-01
DAV:   2    -0.161119687589E+04   -0.72507E-02   -0.17232E-01 17656   0.589E-01    0.340E-01
DAV:   3    -0.161119362247E+04    0.32534E-02   -0.31702E-02 18616   0.313E-01    0.250E-01
DAV:   4    -0.161119211324E+04    0.15092E-02   -0.75352E-03 18632   0.140E-01    0.157E-01
DAV:   5    -0.161119147197E+04    0.64127E-03   -0.47646E-03 15944   0.977E-02    0.487E-02
DAV:   6    -0.161119142201E+04    0.49961E-04   -0.84326E-04 15672   0.463E-02    0.271E-02
DAV:   7    -0.161119141105E+04    0.10958E-04   -0.14893E-04 14896   0.200E-02    0.186E-02
DAV:   8    -0.161119140605E+04    0.49978E-05   -0.50514E-05 11960   0.114E-02
   4 F= -.16111914E+04 E0= -.16111882E+04  d E =-.583757E-01
       N       E                     dE             d eps       ncg     rms          rms(c)
DAV:   1    -0.161119998379E+04   -0.85727E-02   -0.15552E+00 11944   0.161E+00    0.182E-01
DAV:   2    -0.161120139933E+04   -0.14155E-02   -0.21409E-02 17312   0.236E-01    0.146E-01
DAV:   3    -0.161120047116E+04    0.92817E-03   -0.54207E-03 18416   0.131E-01    0.995E-02
DAV:   4    -0.161120024092E+04    0.23024E-03   -0.12157E-03 16520   0.531E-02    0.463E-02
DAV:   5    -0.161120021145E+04    0.29465E-04   -0.54934E-04 14856   0.344E-02    0.159E-02
DAV:   6    -0.161120020455E+04    0.69025E-05   -0.98368E-05 14040   0.172E-02
   5 F= -.16112002E+04 E0= -.16111974E+04  d E =-.879850E-02
       N       E                     dE             d eps       ncg     rms          rms(c)
DAV:   1    -0.161120262423E+04   -0.24128E-02   -0.15136E-01 12094   0.587E-01    0.179E-01
DAV:   2    -0.161120103926E+04    0.15850E-02   -0.38030E-03 16168   0.949E-02    0.853E-02
DAV:   3    -0.161120076928E+04    0.26997E-03   -0.18390E-03 17648   0.733E-02    0.637E-02
DAV:   4    -0.161120047018E+04    0.29911E-03   -0.77824E-04 17608   0.529E-02    0.284E-02
DAV:   5    -0.161120038828E+04    0.81895E-04   -0.33969E-04 14696   0.278E-02    0.980E-03
DAV:   6    -0.161120038508E+04    0.31966E-05   -0.39610E-05  9552   0.108E-02
   6 F= -.16112004E+04 E0= -.16111983E+04  d E =-.180536E-03
       N       E                     dE             d eps       ncg     rms          rms(c)
DAV:   1    -0.161120383811E+04   -0.34498E-02   -0.18204E-01 12016   0.576E-01    0.114E-01
DAV:   2    -0.161120357640E+04    0.26171E-03   -0.25700E-03 16768   0.783E-02    0.642E-02
DAV:   3    -0.161120350034E+04    0.76059E-04   -0.96223E-04 18736   0.552E-02    0.489E-02
DAV:   4    -0.161120342501E+04    0.75335E-04   -0.35819E-04 16864   0.323E-02    0.196E-02
DAV:   5    -0.161120344158E+04   -0.16568E-04   -0.14680E-04 14400   0.180E-02    0.789E-03
DAV:   6    -0.161120344140E+04    0.17475E-06   -0.15018E-05  7320   0.721E-03
   7 F= -.16112034E+04 E0= -.16112011E+04  d E =-.305632E-02
       N       E                     dE             d eps       ncg     rms          rms(c)
DAV:   1    -0.161120447953E+04   -0.10380E-02   -0.12020E-01 11984   0.443E-01    0.494E-02
DAV:   2    -0.161120455109E+04   -0.71560E-04   -0.12879E-03 17232   0.597E-02    0.402E-02
DAV:   3    -0.161120448547E+04    0.65618E-04   -0.35350E-04 17998   0.346E-02    0.284E-02
DAV:   4    -0.161120445667E+04    0.28798E-04   -0.79014E-05 13648   0.139E-02    0.106E-02
DAV:   5    -0.161120445073E+04    0.59480E-05   -0.23177E-05  7748   0.867E-03
   8 F= -.16112045E+04 E0= -.16112022E+04  d E =-.100932E-02
       N       E                     dE             d eps       ncg     rms          rms(c)
DAV:   1    -0.161120510294E+04   -0.64627E-03   -0.96165E-02 11996   0.400E-01    0.493E-02
DAV:   2    -0.161120514270E+04   -0.39760E-04   -0.92549E-04 17328   0.438E-02    0.336E-02
DAV:   3    -0.161120512743E+04    0.15271E-04   -0.18596E-04 17606   0.248E-02    0.258E-02
DAV:   4    -0.161120512274E+04    0.46928E-05   -0.66754E-05 13296   0.135E-02    0.879E-03
DAV:   5    -0.161120512924E+04   -0.65052E-05   -0.20005E-05  7072   0.815E-03
   9 F= -.16112051E+04 E0= -.16112028E+04  d E =-.678515E-03
       N       E                     dE             d eps       ncg     rms          rms(c)
DAV:   1    -0.161120541593E+04   -0.29319E-03   -0.54507E-03 12072   0.111E-01    0.346E-02
DAV:   2    -0.161120533248E+04    0.83447E-04   -0.13522E-04 14352   0.171E-02    0.157E-02
DAV:   3    -0.161120530769E+04    0.24792E-04   -0.40786E-05 10004   0.113E-02    0.942E-03
DAV:   4    -0.161120529361E+04    0.14078E-04   -0.12467E-05  8200   0.888E-03    0.491E-03
DAV:   5    -0.161120528448E+04    0.91300E-05   -0.79149E-06  6424   0.539E-03
  10 F= -.16112053E+04 E0= -.16112030E+04  d E =-.155239E-03
       N       E                     dE             d eps       ncg     rms          rms(c)
DAV:   1    -0.161120571928E+04   -0.42567E-03   -0.47992E-02 11956   0.279E-01    0.279E-02
DAV:   2    -0.161120574865E+04   -0.29367E-04   -0.40543E-04 17368   0.279E-02    0.216E-02
DAV:   3    -0.161120574184E+04    0.68058E-05   -0.41054E-05 10530   0.129E-02    0.169E-02
DAV:   4    -0.161120574052E+04    0.13235E-05   -0.37746E-05  9296   0.933E-03    0.342E-03
DAV:   5    -0.161120573979E+04    0.72884E-06   -0.48195E-06  6406   0.451E-03
  11 F= -.16112057E+04 E0= -.16112035E+04  d E =-.455312E-03
       N       E                     dE             d eps       ncg     rms          rms(c)
DAV:   1    -0.161120625537E+04   -0.51485E-03   -0.96718E-02 11956   0.397E-01    0.404E-02
DAV:   2    -0.161120628265E+04   -0.27278E-04   -0.82152E-04 17432   0.385E-02    0.300E-02
DAV:   3    -0.161120626622E+04    0.16429E-04   -0.94619E-05 15048   0.174E-02    0.230E-02
DAV:   4    -0.161120623977E+04    0.26451E-04   -0.51153E-05 12016   0.119E-02    0.618E-03
DAV:   5    -0.161120623642E+04    0.33533E-05   -0.11784E-05  6728   0.641E-03
  12 F= -.16112062E+04 E0= -.16112041E+04  d E =-.496626E-03
       N       E                     dE             d eps       ncg     rms          rms(c)
DAV:   1    -0.161120619330E+04    0.46473E-04   -0.36388E-03 11996   0.862E-02    0.232E-02
DAV:   2    -0.161120618967E+04    0.36317E-05   -0.62545E-05 12776   0.124E-02    0.110E-02
DAV:   3    -0.161120619475E+04   -0.50810E-05   -0.19461E-05  7906   0.887E-03    0.727E-03
DAV:   4    -0.161120619845E+04   -0.37022E-05   -0.60579E-06  6832   0.674E-03    0.337E-03
DAV:   5    -0.161120620378E+04   -0.53278E-05   -0.46395E-06  6264   0.365E-03
  13 F= -.16112062E+04 E0= -.16112039E+04  d E =0.326400E-04
       N       E                     dE             d eps       ncg     rms          rms(c)
DAV:   1    -0.161120650436E+04   -0.30591E-03   -0.34741E-02 11964   0.238E-01    0.237E-02
DAV:   2    -0.161120651032E+04   -0.59615E-05   -0.27282E-04 17248   0.219E-02    0.175E-02
DAV:   3    -0.161120650188E+04    0.84451E-05   -0.19205E-05  8466   0.856E-03    0.116E-02
DAV:   4    -0.161120649293E+04    0.89498E-05   -0.14741E-05  7528   0.832E-03    0.294E-03
DAV:   5    -0.161120649201E+04    0.91264E-06   -0.48310E-06  6278   0.510E-03
  14 F= -.16112065E+04 E0= -.16112043E+04  d E =-.288236E-03
       N       E                     dE             d eps       ncg     rms          rms(c)
DAV:   1    -0.161120677887E+04   -0.28595E-03   -0.53964E-02 11952   0.296E-01    0.284E-02
DAV:   2    -0.161120681050E+04   -0.31630E-04   -0.44377E-04 17496   0.270E-02    0.216E-02
DAV:   3    -0.161120680467E+04    0.58302E-05   -0.34245E-05  9638   0.101E-02    0.104E-02
DAV:   4    -0.161120680477E+04   -0.95167E-07   -0.18324E-05  8392   0.964E-03    0.339E-03
DAV:   5    -0.161120680389E+04    0.88282E-06   -0.45195E-06  6416   0.538E-03
  15 F= -.16112068E+04 E0= -.16112046E+04  d E =-.311873E-03
       N       E                     dE             d eps       ncg     rms          rms(c)
DAV:   1    -0.161120683699E+04   -0.32221E-04   -0.10772E-03 12000   0.522E-02    0.177E-02
DAV:   2    -0.161120680553E+04    0.31460E-04   -0.24618E-05  6424   0.814E-03    0.788E-03
DAV:   3    -0.161120679353E+04    0.11997E-04   -0.11247E-05  6238   0.617E-03    0.394E-03
DAV:   4    -0.161120678856E+04    0.49683E-05   -0.43591E-06  6240   0.489E-03    0.192E-03
DAV:   5    -0.161120678532E+04    0.32485E-05   -0.19675E-06  6240   0.286E-03
  16 F= -.16112068E+04 E0= -.16112046E+04  d E =0.185701E-04
       N       E                     dE             d eps       ncg     rms          rms(c)
DAV:   1    -0.161120693912E+04   -0.15055E-03   -0.15455E-02 11956   0.160E-01    0.183E-02
DAV:   2    -0.161120695044E+04   -0.11322E-04   -0.13225E-04 16544   0.149E-02    0.125E-02
DAV:   3    -0.161120695226E+04   -0.18186E-05   -0.11628E-05  6876   0.560E-03    0.657E-03
DAV:   4    -0.161120695600E+04   -0.37366E-05   -0.59634E-06  6464   0.549E-03    0.267E-03
DAV:   5    -0.161120695686E+04   -0.85862E-06   -0.23780E-06  6264   0.387E-03
  17 F= -.16112070E+04 E0= -.16112048E+04  d E =-.171539E-03
       N       E                     dE             d eps       ncg     rms          rms(c)
DAV:   1    -0.161120708337E+04   -0.12738E-03   -0.15136E-02 11956   0.157E-01    0.153E-02
DAV:   2    -0.161120708843E+04   -0.50598E-05   -0.12526E-04 16608   0.143E-02    0.116E-02
DAV:   3    -0.161120708328E+04    0.51562E-05   -0.10501E-05  6856   0.534E-03    0.439E-03
DAV:   4    -0.161120708186E+04    0.14195E-05   -0.42909E-06  6384   0.483E-03    0.188E-03
DAV:   5    -0.161120708176E+04    0.96088E-07   -0.12963E-06  6240   0.302E-03
  18 F= -.16112071E+04 E0= -.16112049E+04  d E =-.124907E-03
       N       E                     dE             d eps       ncg     rms          rms(c)
DAV:   1    -0.161120720755E+04   -0.12569E-03   -0.26339E-02 11944   0.208E-01    0.226E-02
DAV:   2    -0.161120722522E+04   -0.17672E-04   -0.22450E-04 17400   0.193E-02    0.158E-02
DAV:   3    -0.161120722591E+04   -0.69069E-06   -0.16716E-05  7666   0.684E-03    0.810E-03
DAV:   4    -0.161120722998E+04   -0.40697E-05   -0.88485E-06  7080   0.684E-03    0.299E-03
DAV:   5    -0.161120723061E+04   -0.63013E-06   -0.33230E-06  6292   0.470E-03
  19 F= -.16112072E+04 E0= -.16112050E+04  d E =-.148850E-03
       N       E                     dE             d eps       ncg     rms          rms(c)
DAV:   1    -0.161120724460E+04   -0.14621E-04   -0.99559E-04 11976   0.458E-02    0.128E-02
DAV:   2    -0.161120722562E+04    0.18985E-04   -0.13421E-05  6138   0.595E-03    0.605E-03
DAV:   3    -0.161120721688E+04    0.87383E-05   -0.60475E-06  6126   0.413E-03    0.271E-03
DAV:   4    -0.161120721353E+04    0.33457E-05   -0.22033E-06  6132   0.316E-03    0.143E-03
DAV:   5    -0.161120721157E+04    0.19652E-05   -0.93397E-07  6132   0.209E-03
  20 F= -.16112072E+04 E0= -.16112050E+04  d E =0.190433E-04
       N       E                     dE             d eps       ncg     rms          rms(c)
DAV:   1    -0.161120728715E+04   -0.73613E-04   -0.90253E-03 11952   0.121E-01    0.115E-02
DAV:   2    -0.161120729187E+04   -0.47270E-05   -0.63292E-05 13456   0.108E-02    0.877E-03
DAV:   3    -0.161120729155E+04    0.31956E-06   -0.10477E-05  6348   0.525E-03    0.292E-03
DAV:   4    -0.161120729227E+04   -0.71761E-06   -0.34236E-06  6240   0.413E-03    0.166E-03
DAV:   5    -0.161120729203E+04    0.24716E-06   -0.12332E-06  6206   0.250E-03
  21 F= -.16112073E+04 E0= -.16112051E+04  d E =-.804564E-04
       N       E                     dE             d eps       ncg     rms          rms(c)
DAV:   1    -0.161120742579E+04   -0.13352E-03   -0.44473E-02 11936   0.269E-01    0.265E-02
DAV:   2    -0.161120743903E+04   -0.13240E-04   -0.37236E-04 17456   0.245E-02    0.198E-02
DAV:   3    -0.161120742464E+04    0.14392E-04   -0.26506E-05  8240   0.821E-03    0.876E-03
DAV:   4    -0.161120741974E+04    0.49023E-05   -0.12297E-05  7312   0.761E-03    0.306E-03
DAV:   5    -0.161120741922E+04    0.51695E-06   -0.37149E-06  6444   0.516E-03
  22 F= -.16112074E+04 E0= -.16112053E+04  d E =-.127194E-03
       N       E                     dE             d eps       ncg     rms          rms(c)
DAV:   1    -0.161120735590E+04    0.63835E-04   -0.11849E-02 11940   0.140E-01    0.176E-02
DAV:   2    -0.161120736322E+04   -0.73237E-05   -0.91904E-05 14224   0.131E-02    0.112E-02
DAV:   3    -0.161120736578E+04   -0.25602E-05   -0.12324E-05  6182   0.562E-03    0.579E-03
DAV:   4    -0.161120736985E+04   -0.40621E-05   -0.52311E-06  6138   0.480E-03    0.235E-03
DAV:   5    -0.161120737075E+04   -0.90570E-06   -0.22663E-06  6084   0.370E-03
  23 F= -.16112074E+04 E0= -.16112052E+04  d E =0.484663E-04
       N       E                     dE             d eps       ncg     rms          rms(c)
DAV:   1    -0.161120744201E+04   -0.72166E-04   -0.11584E-02 11940   0.137E-01    0.132E-02
DAV:   2    -0.161120744316E+04   -0.11431E-05   -0.79837E-05 14136   0.123E-02    0.996E-03
DAV:   3    -0.161120743856E+04    0.45920E-05   -0.10985E-05  6236   0.540E-03    0.380E-03
DAV:   4    -0.161120743719E+04    0.13781E-05   -0.40704E-06  6216   0.456E-03    0.169E-03
DAV:   5    -0.161120743714E+04    0.49160E-07   -0.14237E-06  6140   0.285E-03
  24 F= -.16112074E+04 E0= -.16112053E+04  d E =-.663839E-04
       N       E                     dE             d eps       ncg     rms          rms(c)
DAV:   1    -0.161120750848E+04   -0.71292E-04   -0.26866E-02 11936   0.209E-01    0.200E-02
DAV:   2    -0.161120752499E+04   -0.16511E-04   -0.22398E-04 17408   0.189E-02    0.153E-02
DAV:   3    -0.161120752185E+04    0.31362E-05   -0.16692E-05  7646   0.709E-03    0.589E-03
DAV:   4    -0.161120752264E+04   -0.78742E-06   -0.78201E-06  6912   0.676E-03    0.250E-03
DAV:   5    -0.161120752210E+04    0.54072E-06   -0.20834E-06  6248   0.378E-03
  25 F= -.16112075E+04 E0= -.16112053E+04  d E =-.849627E-04
       N       E                     dE             d eps       ncg     rms          rms(c)
DAV:   1    -0.161120749146E+04    0.31177E-04   -0.82456E-03 11940   0.117E-01    0.142E-02
DAV:   2    -0.161120748168E+04    0.97809E-05   -0.59990E-05 12848   0.108E-02    0.929E-03
DAV:   3    -0.161120747405E+04    0.76360E-05   -0.94839E-06  6088   0.516E-03    0.470E-03
DAV:   4    -0.161120746980E+04    0.42471E-05   -0.37860E-06  6078   0.438E-03    0.195E-03
DAV:   5    -0.161120746863E+04    0.11723E-05   -0.17866E-06  6068   0.313E-03
  26 F= -.16112075E+04 E0= -.16112053E+04  d E =0.534721E-04
       N       E                     dE             d eps       ncg     rms          rms(c)
DAV:   1    -0.161120751497E+04   -0.45171E-04   -0.96988E-03 11940   0.126E-01    0.123E-02
DAV:   2    -0.161120752085E+04   -0.58836E-05   -0.64968E-05 13280   0.113E-02    0.917E-03
DAV:   3    -0.161120752161E+04   -0.76067E-06   -0.10169E-05  6204   0.522E-03    0.350E-03
DAV:   4    -0.161120752306E+04   -0.14475E-05   -0.36693E-06  6196   0.431E-03    0.152E-03
DAV:   5    -0.161120752286E+04    0.19837E-06   -0.13589E-06  6066   0.273E-03
  27 F= -.16112075E+04 E0= -.16112054E+04  d E =-.542367E-04
       N       E                     dE             d eps       ncg     rms          rms(c)
DAV:   1    -0.161120755241E+04   -0.29348E-04   -0.66313E-03 11944   0.104E-01    0.100E-02
DAV:   2    -0.161120755402E+04   -0.16075E-05   -0.51464E-05 11800   0.948E-03    0.763E-03
DAV:   3    -0.161120755182E+04    0.21950E-05   -0.92312E-06  6270   0.487E-03    0.252E-03
DAV:   4    -0.161120755131E+04    0.51216E-06   -0.29903E-06  6108   0.351E-03    0.120E-03
DAV:   5    -0.161120755138E+04   -0.69307E-07   -0.13061E-06  6074   0.241E-03
  28 F= -.16112076E+04 E0= -.16112054E+04  d E =-.285156E-04
       N       E                     dE             d eps       ncg     rms          rms(c)
DAV:   1    -0.161120754198E+04    0.93252E-05   -0.34395E-04 11948   0.265E-02    0.689E-03
DAV:   2    -0.161120754574E+04   -0.37542E-05   -0.42006E-06  6030   0.345E-03    0.326E-03
DAV:   3    -0.161120754888E+04   -0.31427E-05   -0.18485E-06  6018   0.247E-03    0.162E-03
DAV:   4    -0.161120755044E+04   -0.15549E-05   -0.67712E-07  6006   0.196E-03    0.820E-04
DAV:   5    -0.161120755158E+04   -0.11421E-05   -0.31013E-07  6006   0.116E-03
  29 F= -.16112076E+04 E0= -.16112054E+04  d E =-.199376E-06
       N       E                     dE             d eps       ncg     rms          rms(c)
DAV:   1    -0.161120757350E+04   -0.23064E-04   -0.20372E-03 11940   0.579E-02    0.665E-03
DAV:   2    -0.161120756970E+04    0.37969E-05   -0.11244E-05  6036   0.540E-03    0.429E-03
DAV:   3    -0.161120756701E+04    0.26915E-05   -0.38409E-06  6030   0.293E-03    0.185E-03
DAV:   4    -0.161120756579E+04    0.12225E-05   -0.17786E-06  6036   0.236E-03    0.960E-04
DAV:   5    -0.161120756552E+04    0.26873E-06   -0.93300E-07  6034   0.186E-03
  30 F= -.16112076E+04 E0= -.16112054E+04  d E =-.139424E-04
       N       E                     dE             d eps       ncg     rms          rms(c)
DAV:   1    -0.161120757592E+04   -0.10134E-04   -0.14447E-03 11944   0.483E-02    0.480E-03
DAV:   2    -0.161120757690E+04   -0.97256E-06   -0.86415E-06  6042   0.466E-03    0.352E-03
DAV:   3    -0.161120757748E+04   -0.58244E-06   -0.36355E-06  6034   0.279E-03    0.836E-04
DAV:   4    -0.161120757780E+04   -0.31926E-06   -0.17022E-06  6006   0.218E-03    0.555E-04
DAV:   5    -0.161120757780E+04   -0.56839E-08   -0.94598E-07  6006   0.166E-03
  31 F= -.16112076E+04 E0= -.16112054E+04  d E =-.122825E-04
       N       E                     dE             d eps       ncg     rms          rms(c)
DAV:   1    -0.161120758675E+04   -0.89483E-05   -0.49524E-04 11948   0.292E-02    0.490E-03
DAV:   2    -0.161120758235E+04    0.43987E-05   -0.46793E-06  6006   0.342E-03    0.263E-03
DAV:   3    -0.161120758001E+04    0.23419E-05   -0.19163E-06  6004   0.225E-03    0.127E-03
DAV:   4    -0.161120757874E+04    0.12653E-05   -0.91970E-07  6000   0.173E-03    0.712E-04
DAV:   5    -0.161120757821E+04    0.53378E-06   -0.51157E-07  6000   0.135E-03
  32 F= -.16112076E+04 E0= -.16112054E+04  d E =-.403021E-06
       N       E                     dE             d eps       ncg     rms          rms(c)
DAV:   1    -0.161120758030E+04   -0.15613E-05   -0.15723E-04 11712   0.168E-02    0.340E-03
DAV:   2    -0.161120758264E+04   -0.23339E-05   -0.17890E-06  6000   0.210E-03    0.178E-03
DAV:   3    -0.161120758423E+04   -0.15950E-05   -0.77693E-07  6000   0.145E-03    0.864E-04
DAV:   4    -0.161120758508E+04   -0.84445E-06   -0.35833E-07  6000   0.111E-03    0.468E-04
DAV:   5    -0.161120758555E+04   -0.47203E-06   -0.19800E-07  6000   0.832E-04
  33 F= -.16112076E+04 E0= -.16112054E+04  d E =-.734046E-05
       N       E                     dE             d eps       ncg     rms          rms(c)
DAV:   1    -0.161120759186E+04   -0.67832E-05   -0.67073E-04 11944   0.330E-02    0.323E-03
DAV:   2    -0.161120759195E+04   -0.87267E-07   -0.37779E-06  6000   0.310E-03    0.237E-03
DAV:   3    -0.161120759181E+04    0.13114E-06   -0.15151E-06  5996   0.182E-03    0.614E-04
DAV:   4    -0.161120759184E+04   -0.24215E-07   -0.71024E-07  6000   0.146E-03    0.374E-04
DAV:   5    -0.161120759187E+04   -0.32954E-07   -0.39372E-07  5996   0.108E-03
  34 F= -.16112076E+04 E0= -.16112054E+04  d E =-.632443E-05
       N       E                     dE             d eps       ncg     rms          rms(c)
DAV:   1    -0.161120761135E+04   -0.19510E-04   -0.22514E-02 11936   0.191E-01    0.182E-02
DAV:   2    -0.161120762256E+04   -0.11211E-04   -0.18475E-04 17120   0.174E-02    0.139E-02
DAV:   3    -0.161120761750E+04    0.50640E-05   -0.15701E-05  7374   0.651E-03    0.431E-03
DAV:   4    -0.161120761734E+04    0.16024E-06   -0.56605E-06  6616   0.576E-03    0.239E-03
DAV:   5    -0.161120761702E+04    0.31148E-06   -0.15731E-06  6278   0.328E-03
  35 F= -.16112076E+04 E0= -.16112055E+04  d E =-.251525E-04
       N       E                     dE             d eps       ncg     rms          rms(c)
DAV:   1    -0.161120761945E+04   -0.21160E-05   -0.47876E-03 11940   0.881E-02    0.821E-03
DAV:   2    -0.161120762104E+04   -0.15916E-05   -0.27267E-05  8776   0.813E-03    0.607E-03
DAV:   3    -0.161120762095E+04    0.93893E-07   -0.91700E-06  6310   0.454E-03    0.201E-03
DAV:   4    -0.161120762129E+04   -0.34418E-06   -0.44263E-06  6186   0.375E-03    0.959E-04
DAV:   5    -0.161120762143E+04   -0.13885E-06   -0.23562E-06  6180   0.275E-03
  36 F= -.16112076E+04 E0= -.16112055E+04  d E =-.440821E-05
