       N       E                     dE             d eps       ncg     rms          rms(c)
DAV:   1     0.272405121497E+04    0.27241E+04   -0.31574E+05 12460   0.145E+03
DAV:   2    -0.119183120617E+04   -0.39159E+04   -0.37478E+04 14290   0.344E+02
DAV:   3    -0.170455177075E+04   -0.51272E+03   -0.48831E+03 19112   0.832E+01
DAV:   4    -0.173009492771E+04   -0.25543E+02   -0.24830E+02 17528   0.185E+01
DAV:   5    -0.173114068720E+04   -0.10458E+01   -0.10293E+01 19624   0.382E+00    0.467E+01
DAV:   6    -0.167099695849E+04    0.60144E+02   -0.12492E+02 17960   0.147E+01    0.241E+01
DAV:   7    -0.165391534383E+04    0.17082E+02   -0.75112E+01 17168   0.133E+01    0.129E+01
DAV:   8    -0.164594262927E+04    0.79727E+01   -0.35581E+01 17128   0.108E+01    0.369E+00
DAV:   9    -0.164567467986E+04    0.26795E+00   -0.10180E+01 18048   0.513E+00    0.195E+00
DAV:  10    -0.164566095815E+04    0.13722E-01   -0.13886E+00 15632   0.177E+00    0.137E+00
DAV:  11    -0.164562417804E+04    0.36780E-01   -0.46541E-01 17392   0.855E-01    0.673E-01
DAV:  12    -0.164561006887E+04    0.14109E-01   -0.62621E-02 17464   0.346E-01    0.284E-01
DAV:  13    -0.164560779418E+04    0.22747E-02   -0.16756E-02 17656   0.182E-01    0.887E-02
DAV:  14    -0.164560788142E+04   -0.87240E-04   -0.32636E-03 15056   0.903E-02    0.395E-02
DAV:  15    -0.164560791006E+04   -0.28647E-04   -0.52758E-04 15232   0.415E-02    0.210E-02
DAV:  16    -0.164560790471E+04    0.53566E-05   -0.12952E-04 15448   0.199E-02    0.116E-02
DAV:  17    -0.164560789276E+04    0.11952E-04   -0.29316E-05  9256   0.971E-03    0.561E-03
DAV:  18    -0.164560788447E+04    0.82822E-05   -0.13901E-05  8248   0.522E-03
   1 F= -.16456079E+04 E0= -.16456093E+04  d E =-.164561E+04
       N       E                     dE             d eps       ncg     rms          rms(c)
DAV:   1    -0.164617456865E+04   -0.56668E+00   -0.14925E+02 12460   0.153E+01    0.242E+00
DAV:   2    -0.164612125937E+04    0.53309E-01   -0.29211E+00 17088   0.249E+00    0.136E+00
DAV:   3    -0.164607066044E+04    0.50599E-01   -0.49512E-01 16984   0.109E+00    0.937E-01
DAV:   4    -0.164604813307E+04    0.22527E-01   -0.11697E-01 16912   0.639E-01    0.485E-01
DAV:   5    -0.164604100831E+04    0.71248E-02   -0.56611E-02 15784   0.434E-01    0.157E-01
DAV:   6    -0.164604118761E+04   -0.17930E-03   -0.11179E-02 16216   0.164E-01    0.113E-01
DAV:   7    -0.164604104593E+04    0.14168E-03   -0.22514E-03 15792   0.641E-02    0.611E-02
DAV:   8    -0.164604107936E+04   -0.33430E-04   -0.67216E-04 15336   0.379E-02    0.236E-02
DAV:   9    -0.164604105840E+04    0.20954E-04   -0.12001E-04 15680   0.216E-02    0.123E-02
DAV:  10    -0.164604105263E+04    0.57787E-05   -0.47350E-05 11112   0.969E-03
   2 F= -.16460411E+04 E0= -.16460477E+04  d E =-.433168E+00
       N       E                     dE             d eps       ncg     rms          rms(c)
DAV:   1    -0.164628008731E+04   -0.23903E+00   -0.14760E+01 12460   0.593E+00    0.195E+00
DAV:   2    -0.164610270872E+04    0.17738E+00   -0.29150E-01 14408   0.792E-01    0.943E-01
DAV:   3    -0.164605622756E+04    0.46481E-01   -0.12258E-01 14411   0.528E-01    0.324E-01
DAV:   4    -0.164605124875E+04    0.49788E-02   -0.32876E-02 15528   0.328E-01    0.104E-01
DAV:   5    -0.164605102681E+04    0.22194E-03   -0.80935E-03 15531   0.172E-01    0.545E-02
DAV:   6    -0.164605129560E+04   -0.26879E-03   -0.17567E-03 17080   0.582E-02    0.383E-02
DAV:   7    -0.164605139661E+04   -0.10101E-03   -0.26557E-04 16656   0.229E-02    0.216E-02
DAV:   8    -0.164605146876E+04   -0.72148E-04   -0.84459E-05 14240   0.137E-02    0.934E-03
DAV:   9    -0.164605148711E+04   -0.18349E-04   -0.23015E-05  8720   0.824E-03    0.433E-03
DAV:  10    -0.164605149441E+04   -0.72959E-05   -0.11673E-05  7560   0.499E-03
   3 F= -.16460515E+04 E0= -.16460534E+04  d E =-.104418E-01
       N       E                     dE             d eps       ncg     rms          rms(c)
DAV:   1    -0.164626948110E+04   -0.21799E+00   -0.61993E+00 12460   0.361E+00    0.103E+00
DAV:   2    -0.164622347140E+04    0.46010E-01   -0.97623E-02 15736   0.490E-01    0.532E-01
DAV:   3    -0.164621081777E+04    0.12654E-01   -0.45564E-02 15880   0.340E-01    0.272E-01
DAV:   4    -0.164620586155E+04    0.49562E-02   -0.20319E-02 15928   0.283E-01    0.680E-02
DAV:   5    -0.164620582664E+04    0.34908E-04   -0.50548E-03 15424   0.123E-01    0.445E-02
DAV:   6    -0.164620589229E+04   -0.65653E-04   -0.80467E-04 15832   0.414E-02    0.299E-02
DAV:   7    -0.164620591600E+04   -0.23709E-04   -0.16306E-04 16456   0.166E-02    0.158E-02
DAV:   8    -0.164620592109E+04   -0.50913E-05   -0.46850E-05 12128   0.108E-02
   4 F= -.16462059E+04 E0= -.16462105E+04  d E =-.154427E+00
       N       E                     dE             d eps       ncg     rms          rms(c)
DAV:   1    -0.164620874543E+04   -0.28294E-02   -0.60908E-01 12555   0.974E-01    0.127E-01
DAV:   2    -0.164620908975E+04   -0.34432E-03   -0.10014E-02 17328   0.151E-01    0.780E-02
DAV:   3    -0.164620897274E+04    0.11701E-03   -0.15807E-03 17539   0.667E-02    0.570E-02
DAV:   4    -0.164620891495E+04    0.57787E-04   -0.35881E-04 17544   0.348E-02    0.297E-02
DAV:   5    -0.164620891012E+04    0.48277E-05   -0.17565E-04 14800   0.203E-02    0.797E-03
DAV:   6    -0.164620890798E+04    0.21386E-05   -0.19497E-05  8448   0.736E-03
   5 F= -.16462089E+04 E0= -.16462135E+04  d E =-.298689E-02
       N       E                     dE             d eps       ncg     rms          rms(c)
DAV:   1    -0.164620924097E+04   -0.33085E-03   -0.96135E-02 12610   0.398E-01    0.711E-02
DAV:   2    -0.164620918685E+04    0.54119E-04   -0.15070E-03 16640   0.621E-02    0.385E-02
DAV:   3    -0.164620917010E+04    0.16756E-04   -0.30404E-04 16992   0.297E-02    0.258E-02
DAV:   4    -0.164620916705E+04    0.30507E-05   -0.10829E-04 15880   0.205E-02    0.110E-02
DAV:   5    -0.164620917745E+04   -0.10399E-04   -0.38673E-05 10216   0.101E-02    0.431E-03
DAV:   6    -0.164620917691E+04    0.53933E-06   -0.65402E-06  7224   0.517E-03
   6 F= -.16462092E+04 E0= -.16462136E+04  d E =-.268924E-03
       N       E                     dE             d eps       ncg     rms          rms(c)
DAV:   1    -0.164620970352E+04   -0.52607E-03   -0.13675E-02 12676   0.180E-01    0.595E-02
DAV:   2    -0.164620948275E+04    0.22077E-03   -0.25529E-04 14352   0.259E-02    0.295E-02
DAV:   3    -0.164620941059E+04    0.72153E-04   -0.12945E-04 15128   0.199E-02    0.148E-02
DAV:   4    -0.164620937428E+04    0.36310E-04   -0.55488E-05 13752   0.159E-02    0.381E-03
DAV:   5    -0.164620936732E+04    0.69607E-05   -0.14096E-05  7016   0.668E-03
   7 F= -.16462094E+04 E0= -.16462140E+04  d E =-.190416E-03
       N       E                     dE             d eps       ncg     rms          rms(c)
DAV:   1    -0.164620949076E+04   -0.11648E-03   -0.13009E-02 12602   0.147E-01    0.237E-02
DAV:   2    -0.164620949961E+04   -0.88463E-05   -0.14874E-04 15904   0.216E-02    0.144E-02
DAV:   3    -0.164620949981E+04   -0.19864E-06   -0.29114E-05 10168   0.105E-02    0.995E-03
DAV:   4    -0.164620950835E+04   -0.85372E-05   -0.15623E-05  7280   0.727E-03    0.202E-03
DAV:   5    -0.164620950984E+04   -0.14941E-05   -0.44474E-06  6872   0.442E-03
   8 F= -.16462095E+04 E0= -.16462141E+04  d E =-.142517E-03
       N       E                     dE             d eps       ncg     rms          rms(c)
DAV:   1    -0.164620954099E+04   -0.32649E-04   -0.43003E-03 12618   0.820E-02    0.965E-03
DAV:   2    -0.164620954002E+04    0.97650E-06   -0.38839E-05 10392   0.126E-02    0.659E-03
DAV:   3    -0.164620953834E+04    0.16751E-05   -0.78795E-06  7440   0.704E-03    0.487E-03
DAV:   4    -0.164620953589E+04    0.24555E-05   -0.53577E-06  6808   0.398E-03    0.102E-03
DAV:   5    -0.164620953585E+04    0.37485E-07   -0.21147E-06  6696   0.280E-03
   9 F= -.16462095E+04 E0= -.16462141E+04  d E =-.260099E-04
       N       E                     dE             d eps       ncg     rms          rms(c)
DAV:   1    -0.164620954349E+04   -0.76044E-05   -0.17022E-03 12618   0.522E-02    0.721E-03
DAV:   2    -0.164620954746E+04   -0.39685E-05   -0.13180E-05  7184   0.730E-03    0.459E-03
DAV:   3    -0.164620954905E+04   -0.15915E-05   -0.39798E-06  6896   0.462E-03    0.305E-03
DAV:   4    -0.164620955246E+04   -0.34041E-05   -0.29051E-06  6680   0.314E-03    0.647E-04
DAV:   5    -0.164620955260E+04   -0.14866E-06   -0.12565E-06  6680   0.225E-03
  10 F= -.16462096E+04 E0= -.16462141E+04  d E =-.167547E-04
       N       E                     dE             d eps       ncg     rms          rms(c)
DAV:   1    -0.164620956418E+04   -0.11726E-04   -0.22892E-04 12588   0.212E-02    0.576E-03
DAV:   2    -0.164620955772E+04    0.64598E-05   -0.30495E-06  6641   0.303E-03    0.301E-03
DAV:   3    -0.164620955405E+04    0.36696E-05   -0.15688E-06  6620   0.255E-03    0.137E-03
DAV:   4    -0.164620955197E+04    0.20773E-05   -0.81717E-07  6578   0.204E-03    0.397E-04
DAV:   5    -0.164620955153E+04    0.44619E-06   -0.38111E-07  6578   0.116E-03
  11 F= -.16462096E+04 E0= -.16462141E+04  d E =0.107602E-05
       N       E                     dE             d eps       ncg     rms          rms(c)
DAV:   1    -0.164620955638E+04   -0.44104E-05   -0.69397E-04 12618   0.330E-02    0.397E-03
DAV:   2    -0.164620955801E+04   -0.16273E-05   -0.46061E-06  6578   0.390E-03    0.268E-03
DAV:   3    -0.164620955875E+04   -0.73384E-06   -0.13942E-06  6570   0.237E-03    0.169E-03
DAV:   4    -0.164620955997E+04   -0.12204E-05   -0.91328E-07  6578   0.183E-03    0.314E-04
DAV:   5    -0.164620955998E+04   -0.13544E-07   -0.43909E-07  6578   0.125E-03
  12 F= -.16462096E+04 E0= -.16462141E+04  d E =-.845168E-05
       N       E                     dE             d eps       ncg     rms          rms(c)
DAV:   1    -0.164620956557E+04   -0.56070E-05   -0.58814E-04 12592   0.303E-02    0.345E-03
DAV:   2    -0.164620956450E+04    0.10774E-05   -0.38908E-06  6491   0.349E-03    0.239E-03
DAV:   3    -0.164620956392E+04    0.57596E-06   -0.12677E-06  6478   0.211E-03    0.149E-03
DAV:   4    -0.164620956300E+04    0.91904E-06   -0.80566E-07  6491   0.168E-03    0.270E-04
DAV:   5    -0.164620956309E+04   -0.85197E-07   -0.40715E-07  6486   0.119E-03
  13 F= -.16462096E+04 E0= -.16462141E+04  d E =-.310625E-05
       N       E                     dE             d eps       ncg     rms          rms(c)
DAV:   1    -0.164620956263E+04    0.37476E-06   -0.84305E-05 12266   0.122E-02    0.263E-03
DAV:   2    -0.164620956461E+04   -0.19860E-05   -0.10386E-06  6483   0.164E-03    0.142E-03
DAV:   3    -0.164620956637E+04   -0.17605E-05   -0.50841E-07  6467   0.110E-03    0.400E-04
DAV:   4    -0.164620956697E+04   -0.59897E-06   -0.20826E-07  6467   0.770E-04    0.183E-04
DAV:   5    -0.164620956709E+04   -0.12062E-06   -0.10472E-07  6467   0.550E-04
  14 F= -.16462096E+04 E0= -.16462141E+04  d E =-.400617E-05
       N       E                     dE             d eps       ncg     rms          rms(c)
DAV:   1    -0.164620957082E+04   -0.38498E-05   -0.20434E-04 12376   0.180E-02    0.230E-03
DAV:   2    -0.164620956953E+04    0.12865E-05   -0.13723E-06  6452   0.201E-03    0.151E-03
DAV:   3    -0.164620956864E+04    0.89554E-06   -0.49047E-07  6444   0.121E-03    0.705E-04
DAV:   4    -0.164620956798E+04    0.65980E-06   -0.26108E-07  6428   0.988E-04    0.191E-04
DAV:   5    -0.164620956802E+04   -0.37184E-07   -0.13658E-07  6428   0.678E-04
  15 F= -.16462096E+04 E0= -.16462141E+04  d E =-.924538E-06
       N       E                     dE             d eps       ncg     rms          rms(c)
DAV:   1    -0.164620956966E+04   -0.16837E-05   -0.26694E-04 12432   0.204E-02    0.220E-03
DAV:   2    -0.164620957023E+04   -0.56763E-06   -0.16363E-06  6428   0.217E-03    0.158E-03
DAV:   3    -0.164620957080E+04   -0.56874E-06   -0.64035E-07  6412   0.126E-03    0.326E-04
DAV:   4    -0.164620957095E+04   -0.14918E-06   -0.28350E-07  6380   0.971E-04    0.187E-04
DAV:   5    -0.164620957090E+04    0.47732E-07   -0.16169E-07  6380   0.690E-04
  16 F= -.16462096E+04 E0= -.16462141E+04  d E =-.288430E-05
       N       E                     dE             d eps       ncg     rms          rms(c)
DAV:   1    -0.164620957345E+04   -0.24986E-05   -0.94365E-05 12224   0.125E-02    0.208E-03
DAV:   2    -0.164620957177E+04    0.16752E-05   -0.86833E-07  6388   0.154E-03    0.121E-03
DAV:   3    -0.164620957050E+04    0.12705E-05   -0.36141E-07  6404   0.983E-04    0.431E-04
DAV:   4    -0.164620957003E+04    0.47531E-06   -0.16271E-07  6404   0.775E-04    0.192E-04
DAV:   5    -0.164620956994E+04    0.83213E-07   -0.86245E-08  6404   0.532E-04
  17 F= -.16462096E+04 E0= -.16462141E+04  d E =0.957888E-06
       N       E                     dE             d eps       ncg     rms          rms(c)
DAV:   1    -0.164620956975E+04    0.27237E-06   -0.46608E-05 11496   0.884E-03    0.155E-03
DAV:   2    -0.164620957092E+04   -0.11626E-05   -0.70558E-07  6380   0.132E-03    0.872E-04
DAV:   3    -0.164620957194E+04   -0.10268E-05   -0.22640E-07  6380   0.717E-04    0.242E-04
DAV:   4    -0.164620957221E+04   -0.26929E-06   -0.83431E-08  6380   0.494E-04    0.120E-04
DAV:   5    -0.164620957227E+04   -0.57130E-07   -0.41097E-08  6380   0.337E-04
  18 F= -.16462096E+04 E0= -.16462141E+04  d E =-.232664E-05
       N       E                     dE             d eps       ncg     rms          rms(c)
DAV:   1    -0.164620957351E+04   -0.13003E-05   -0.12470E-04 12312   0.139E-02    0.148E-03
DAV:   2    -0.164620957334E+04    0.17026E-06   -0.77793E-07  6380   0.149E-03    0.106E-03
DAV:   3    -0.164620957309E+04    0.25690E-06   -0.29432E-07  6380   0.823E-04    0.162E-04
DAV:   4    -0.164620957307E+04    0.20256E-07   -0.12198E-07  6380   0.589E-04    0.118E-04
DAV:   5    -0.164620957309E+04   -0.25915E-07   -0.68403E-08  6380   0.436E-04
  19 F= -.16462096E+04 E0= -.16462141E+04  d E =-.821670E-06
       N       E                     dE             d eps       ncg     rms          rms(c)
DAV:   1    -0.164620957309E+04   -0.25560E-07   -0.29305E-04 12456   0.215E-02    0.252E-03
DAV:   2    -0.164620957430E+04   -0.12076E-05   -0.17617E-06  6380   0.225E-03    0.171E-03
DAV:   3    -0.164620957551E+04   -0.12145E-05   -0.68989E-07  6380   0.124E-03    0.360E-04
DAV:   4    -0.164620957575E+04   -0.23709E-06   -0.28174E-07  6380   0.865E-04    0.187E-04
DAV:   5    -0.164620957574E+04    0.12020E-07   -0.14896E-07  6380   0.647E-04
  20 F= -.16462096E+04 E0= -.16462141E+04  d E =-.264681E-05
