       N       E                     dE             d eps       ncg     rms          rms(c)
DAV:   1     0.250640592951E+04    0.25064E+04   -0.30553E+05 12140   0.144E+03
DAV:   2    -0.119512852672E+04   -0.37015E+04   -0.35450E+04 13954   0.327E+02
DAV:   3    -0.167596415504E+04   -0.48084E+03   -0.45284E+03 18608   0.826E+01
DAV:   4    -0.170125046331E+04   -0.25286E+02   -0.24233E+02 17016   0.181E+01
DAV:   5    -0.170229222699E+04   -0.10418E+01   -0.10255E+01 18832   0.397E+00    0.441E+01
DAV:   6    -0.164915136437E+04    0.53141E+02   -0.12222E+02 18176   0.142E+01    0.230E+01
DAV:   7    -0.163395205047E+04    0.15199E+02   -0.76825E+01 17144   0.130E+01    0.135E+01
DAV:   8    -0.162601633127E+04    0.79357E+01   -0.34728E+01 16952   0.112E+01    0.505E+00
DAV:   9    -0.162468521184E+04    0.13311E+01   -0.11256E+01 17160   0.580E+00    0.187E+00
DAV:  10    -0.162474211209E+04   -0.56900E-01   -0.22024E+00 17008   0.205E+00    0.134E+00
DAV:  11    -0.162470316036E+04    0.38952E-01   -0.33609E-01 16232   0.805E-01    0.635E-01
DAV:  12    -0.162469225193E+04    0.10908E-01   -0.66214E-02 15696   0.416E-01    0.332E-01
DAV:  13    -0.162468898682E+04    0.32651E-02   -0.18379E-02 16376   0.199E-01    0.124E-01
DAV:  14    -0.162468864997E+04    0.33685E-03   -0.43379E-03 15376   0.110E-01    0.569E-02
DAV:  15    -0.162468866489E+04   -0.14918E-04   -0.14416E-03 14632   0.584E-02    0.311E-02
DAV:  16    -0.162468865812E+04    0.67654E-05   -0.26192E-04 15744   0.262E-02    0.162E-02
DAV:  17    -0.162468864270E+04    0.15420E-04   -0.60674E-05 12544   0.142E-02    0.951E-03
DAV:  18    -0.162468863157E+04    0.11134E-04   -0.21082E-05  8160   0.783E-03    0.494E-03
DAV:  19    -0.162468862557E+04    0.60008E-05   -0.13154E-05  7712   0.550E-03
   1 F= -.16246886E+04 E0= -.16246939E+04  d E =-.162469E+04
       N       E                     dE             d eps       ncg     rms          rms(c)
DAV:   1    -0.162600460813E+04   -0.13160E+01   -0.49464E+02 12124   0.315E+01    0.962E+00
DAV:   2    -0.162176036656E+04    0.42442E+01   -0.15606E+01 16680   0.535E+00    0.455E+00
DAV:   3    -0.162084636643E+04    0.91400E+00   -0.49363E+00 16304   0.318E+00    0.278E+00
DAV:   4    -0.162050670488E+04    0.33966E+00   -0.16580E+00 16984   0.247E+00    0.140E+00
DAV:   5    -0.162038554430E+04    0.12116E+00   -0.79540E-01 16376   0.164E+00    0.490E-01
DAV:   6    -0.162038998856E+04   -0.44443E-02   -0.15955E-01 15088   0.606E-01    0.359E-01
DAV:   7    -0.162039131031E+04   -0.13218E-02   -0.27932E-02 16008   0.225E-01    0.212E-01
DAV:   8    -0.162039277255E+04   -0.14622E-02   -0.94164E-03 16216   0.144E-01    0.122E-01
DAV:   9    -0.162039268399E+04    0.88556E-04   -0.28551E-03 15320   0.949E-02    0.675E-02
DAV:  10    -0.162039252684E+04    0.15715E-03   -0.13600E-03 16336   0.498E-02    0.271E-02
DAV:  11    -0.162039254367E+04   -0.16833E-04   -0.30197E-04 17240   0.260E-02    0.198E-02
DAV:  12    -0.162039254850E+04   -0.48226E-05   -0.69156E-05 14000   0.151E-02
   2 F= -.16203925E+04 E0= -.16203945E+04  d E =0.429608E+01
       N       E                     dE             d eps       ncg     rms          rms(c)
DAV:   1    -0.162941610305E+04   -0.90236E+01   -0.16007E+02 12124   0.205E+01    0.701E+00
DAV:   2    -0.162703645398E+04    0.23796E+01   -0.41205E+00 13286   0.307E+00    0.322E+00
DAV:   3    -0.162651183725E+04    0.52462E+00   -0.14138E+00 13928   0.188E+00    0.142E+00
DAV:   4    -0.162640612523E+04    0.10571E+00   -0.47981E-01 14968   0.141E+00    0.536E-01
DAV:   5    -0.162639024106E+04    0.15884E-01   -0.17526E-01 15072   0.821E-01    0.212E-01
DAV:   6    -0.162639338181E+04   -0.31408E-02   -0.36278E-02 15568   0.294E-01    0.164E-01
DAV:   7    -0.162639473134E+04   -0.13495E-02   -0.56923E-03 15936   0.103E-01    0.904E-02
DAV:   8    -0.162639561768E+04   -0.88634E-03   -0.16453E-03 14968   0.632E-02    0.491E-02
DAV:   9    -0.162639586628E+04   -0.24860E-03   -0.61143E-04 14424   0.398E-02    0.254E-02
DAV:  10    -0.162639597868E+04   -0.11240E-03   -0.34353E-04 16352   0.257E-02    0.150E-02
DAV:  11    -0.162639600191E+04   -0.23233E-04   -0.43371E-05 10560   0.112E-02    0.849E-03
DAV:  12    -0.162639599767E+04    0.42411E-05   -0.10317E-05  7280   0.605E-03
   3 F= -.16263960E+04 E0= -.16263955E+04  d E =-.600345E+01
       N       E                     dE             d eps       ncg     rms          rms(c)
DAV:   1    -0.162644423650E+04   -0.48235E-01   -0.84140E+00 12124   0.372E+00    0.538E-01
DAV:   2    -0.162644655607E+04   -0.23196E-02   -0.15293E-01 17704   0.564E-01    0.320E-01
DAV:   3    -0.162644432638E+04    0.22297E-02   -0.23722E-02 18592   0.252E-01    0.229E-01
DAV:   4    -0.162644275357E+04    0.15728E-02   -0.69959E-03 18000   0.157E-01    0.122E-01
DAV:   5    -0.162644216561E+04    0.58796E-03   -0.37646E-03 16088   0.992E-02    0.389E-02
DAV:   6    -0.162644217038E+04   -0.47637E-05   -0.59466E-04 15152   0.367E-02    0.262E-02
DAV:   7    -0.162644216817E+04    0.22062E-05   -0.10503E-04 14072   0.159E-02    0.161E-02
DAV:   8    -0.162644217173E+04   -0.35579E-05   -0.47031E-05 11872   0.114E-02
   4 F= -.16264422E+04 E0= -.16264422E+04  d E =-.461741E-01
       N       E                     dE             d eps       ncg     rms          rms(c)
DAV:   1    -0.162644549978E+04   -0.33316E-02   -0.55948E-01 12258   0.951E-01    0.119E-01
DAV:   2    -0.162644583299E+04   -0.33321E-03   -0.95793E-03 17264   0.150E-01    0.759E-02
DAV:   3    -0.162644567131E+04    0.16168E-03   -0.17166E-03 18256   0.724E-02    0.558E-02
DAV:   4    -0.162644560566E+04    0.65649E-04   -0.37451E-04 18488   0.334E-02    0.343E-02
DAV:   5    -0.162644558295E+04    0.22714E-04   -0.23792E-04 15248   0.224E-02    0.956E-03
DAV:   6    -0.162644558069E+04    0.22571E-05   -0.24744E-05  8448   0.896E-03
   5 F= -.16264456E+04 E0= -.16264455E+04  d E =-.340897E-02
       N       E                     dE             d eps       ncg     rms          rms(c)
DAV:   1    -0.162644623527E+04   -0.65232E-03   -0.10114E-01 12360   0.414E-01    0.657E-02
DAV:   2    -0.162644622206E+04    0.13203E-04   -0.13603E-03 16832   0.610E-02    0.392E-02
DAV:   3    -0.162644619341E+04    0.28659E-04   -0.36379E-04 18424   0.347E-02    0.290E-02
DAV:   4    -0.162644618450E+04    0.89029E-05   -0.11520E-04 15512   0.192E-02    0.118E-02
DAV:   5    -0.162644619470E+04   -0.10198E-04   -0.43117E-05 10696   0.108E-02    0.440E-03
DAV:   6    -0.162644619479E+04   -0.90572E-07   -0.68484E-06  6968   0.569E-03
   6 F= -.16264462E+04 E0= -.16264462E+04  d E =-.614098E-03
       N       E                     dE             d eps       ncg     rms          rms(c)
DAV:   1    -0.162644668740E+04   -0.49269E-03   -0.17729E-02 12360   0.188E-01    0.502E-02
DAV:   2    -0.162644654072E+04    0.14668E-03   -0.34946E-04 16176   0.301E-02    0.250E-02
DAV:   3    -0.162644650303E+04    0.37685E-04   -0.13799E-04 16344   0.213E-02    0.172E-02
DAV:   4    -0.162644646789E+04    0.35147E-04   -0.47968E-05 11168   0.146E-02    0.679E-03
DAV:   5    -0.162644645509E+04    0.12794E-04   -0.20115E-05  6824   0.762E-03    0.219E-03
DAV:   6    -0.162644645486E+04    0.23349E-06   -0.44955E-06  6608   0.466E-03
   7 F= -.16264465E+04 E0= -.16264464E+04  d E =-.260068E-03
       N       E                     dE             d eps       ncg     rms          rms(c)
DAV:   1    -0.162644666965E+04   -0.21456E-03   -0.22993E-02 12358   0.194E-01    0.245E-02
DAV:   2    -0.162644668752E+04   -0.17862E-04   -0.23319E-04 17288   0.249E-02    0.169E-02
DAV:   3    -0.162644668306E+04    0.44547E-05   -0.40687E-05 10863   0.135E-02    0.126E-02
DAV:   4    -0.162644668980E+04   -0.67422E-05   -0.20850E-05  7160   0.769E-03    0.222E-03
DAV:   5    -0.162644669102E+04   -0.12186E-05   -0.47006E-06  6598   0.463E-03
   8 F= -.16264467E+04 E0= -.16264467E+04  d E =-.236163E-03
       N       E                     dE             d eps       ncg     rms          rms(c)
DAV:   1    -0.162644682366E+04   -0.13386E-03   -0.14704E-02 12360   0.154E-01    0.176E-02
DAV:   2    -0.162644682201E+04    0.16543E-05   -0.13874E-04 16592   0.188E-02    0.127E-02
DAV:   3    -0.162644681597E+04    0.60311E-05   -0.21098E-05  8872   0.994E-03    0.958E-03
DAV:   4    -0.162644680746E+04    0.85181E-05   -0.13641E-05  6704   0.607E-03    0.199E-03
DAV:   5    -0.162644680683E+04    0.62724E-06   -0.36590E-06  6536   0.394E-03
   9 F= -.16264468E+04 E0= -.16264468E+04  d E =-.115806E-03
       N       E                     dE             d eps       ncg     rms          rms(c)
DAV:   1    -0.162644686286E+04   -0.55406E-04   -0.48880E-03 12360   0.907E-02    0.140E-02
DAV:   2    -0.162644686864E+04   -0.57741E-05   -0.37755E-05  9816   0.102E-02    0.827E-03
DAV:   3    -0.162644687256E+04   -0.39266E-05   -0.12021E-05  7208   0.705E-03    0.499E-03
DAV:   4    -0.162644687709E+04   -0.45236E-05   -0.60004E-06  6448   0.541E-03    0.156E-03
DAV:   5    -0.162644687877E+04   -0.16870E-05   -0.30573E-06  6432   0.320E-03
  10 F= -.16264469E+04 E0= -.16264469E+04  d E =-.719446E-04
       N       E                     dE             d eps       ncg     rms          rms(c)
DAV:   1    -0.162644694761E+04   -0.70528E-04   -0.43572E-03 12360   0.848E-02    0.121E-02
DAV:   2    -0.162644693772E+04    0.98963E-05   -0.34199E-05  9392   0.957E-03    0.738E-03
DAV:   3    -0.162644693346E+04    0.42605E-05   -0.10655E-05  6824   0.655E-03    0.464E-03
DAV:   4    -0.162644692873E+04    0.47288E-05   -0.53892E-06  6416   0.498E-03    0.155E-03
DAV:   5    -0.162644692770E+04    0.10261E-05   -0.28827E-06  6416   0.315E-03
  11 F= -.16264469E+04 E0= -.16264469E+04  d E =-.489297E-04
       N       E                     dE             d eps       ncg     rms          rms(c)
DAV:   1    -0.162644697738E+04   -0.48646E-04   -0.52566E-03 12360   0.919E-02    0.996E-03
DAV:   2    -0.162644698219E+04   -0.48141E-05   -0.39140E-05 10384   0.932E-03    0.714E-03
DAV:   3    -0.162644698378E+04   -0.15911E-05   -0.91903E-06  6576   0.539E-03    0.391E-03
DAV:   4    -0.162644698600E+04   -0.22230E-05   -0.46569E-06  6416   0.429E-03    0.748E-04
DAV:   5    -0.162644698600E+04    0.67844E-08   -0.21117E-06  6416   0.275E-03
  12 F= -.16264470E+04 E0= -.16264470E+04  d E =-.582934E-04
       N       E                     dE             d eps       ncg     rms          rms(c)
DAV:   1    -0.162644702964E+04   -0.43637E-04   -0.37391E-03 12360   0.778E-02    0.929E-03
DAV:   2    -0.162644702451E+04    0.51256E-05   -0.23883E-05  7712   0.800E-03    0.611E-03
DAV:   3    -0.162644702126E+04    0.32562E-05   -0.85762E-06  6504   0.499E-03    0.316E-03
DAV:   4    -0.162644701886E+04    0.23987E-05   -0.44438E-06  6416   0.421E-03    0.105E-03
DAV:   5    -0.162644701872E+04    0.13488E-06   -0.24175E-06  6416   0.291E-03
  13 F= -.16264470E+04 E0= -.16264470E+04  d E =-.327280E-04
       N       E                     dE             d eps       ncg     rms          rms(c)
DAV:   1    -0.162644703859E+04   -0.19726E-04   -0.14348E-03 12360   0.488E-02    0.718E-03
DAV:   2    -0.162644704251E+04   -0.39207E-05   -0.11111E-05  6464   0.537E-03    0.434E-03
DAV:   3    -0.162644704605E+04   -0.35442E-05   -0.48501E-06  6416   0.337E-03    0.148E-03
DAV:   4    -0.162644704782E+04   -0.17743E-05   -0.22164E-06  6416   0.248E-03    0.689E-04
DAV:   5    -0.162644704809E+04   -0.26869E-06   -0.11657E-06  6416   0.196E-03
  14 F= -.16264470E+04 E0= -.16264470E+04  d E =-.293687E-04
       N       E                     dE             d eps       ncg     rms          rms(c)
DAV:   1    -0.162644707827E+04   -0.30443E-04   -0.24777E-03 12344   0.631E-02    0.690E-03
DAV:   2    -0.162644707605E+04    0.22181E-05   -0.15147E-05  8048   0.639E-03    0.479E-03
DAV:   3    -0.162644707391E+04    0.21380E-05   -0.56817E-06  6456   0.381E-03    0.194E-03
DAV:   4    -0.162644707288E+04    0.10345E-05   -0.28826E-06  6416   0.318E-03    0.615E-04
DAV:   5    -0.162644707307E+04   -0.19157E-06   -0.15920E-06  6408   0.231E-03
  15 F= -.16264471E+04 E0= -.16264471E+04  d E =-.249751E-04
       N       E                     dE             d eps       ncg     rms          rms(c)
DAV:   1    -0.162644709604E+04   -0.23164E-04   -0.29187E-03 12342   0.685E-02    0.742E-03
DAV:   2    -0.162644709924E+04   -0.31974E-05   -0.18082E-05  7200   0.690E-03    0.519E-03
DAV:   3    -0.162644710178E+04   -0.25460E-05   -0.72254E-06  6431   0.398E-03    0.118E-03
DAV:   4    -0.162644710272E+04   -0.93359E-06   -0.32191E-06  6416   0.289E-03    0.583E-04
DAV:   5    -0.162644710280E+04   -0.83463E-07   -0.17671E-06  6415   0.229E-03
  16 F= -.16264471E+04 E0= -.16264471E+04  d E =-.297329E-04
       N       E                     dE             d eps       ncg     rms          rms(c)
DAV:   1    -0.162644711700E+04   -0.14284E-04   -0.46305E-04 12360   0.282E-02    0.520E-03
DAV:   2    -0.162644711221E+04    0.47931E-05   -0.48151E-06  6416   0.354E-03    0.285E-03
DAV:   3    -0.162644710932E+04    0.28842E-05   -0.21725E-06  6416   0.245E-03    0.121E-03
DAV:   4    -0.162644710801E+04    0.13119E-05   -0.10426E-06  6416   0.196E-03    0.605E-04
DAV:   5    -0.162644710757E+04    0.44356E-06   -0.58288E-07  6416   0.144E-03
  17 F= -.16264471E+04 E0= -.16264471E+04  d E =-.476824E-05
       N       E                     dE             d eps       ncg     rms          rms(c)
DAV:   1    -0.162644712247E+04   -0.14458E-04   -0.14726E-03 12326   0.486E-02    0.518E-03
DAV:   2    -0.162644712435E+04   -0.18830E-05   -0.86514E-06  6776   0.480E-03    0.366E-03
DAV:   3    -0.162644712604E+04   -0.16884E-05   -0.35626E-06  6415   0.275E-03    0.674E-04
DAV:   4    -0.162644712647E+04   -0.42518E-06   -0.15325E-06  6416   0.193E-03    0.369E-04
DAV:   5    -0.162644712649E+04   -0.23068E-07   -0.84173E-07  6399   0.152E-03
  18 F= -.16264471E+04 E0= -.16264471E+04  d E =-.189216E-04
       N       E                     dE             d eps       ncg     rms          rms(c)
DAV:   1    -0.162644714664E+04   -0.20167E-04   -0.27094E-03 12310   0.659E-02    0.687E-03
DAV:   2    -0.162644714511E+04    0.15252E-05   -0.15939E-05  7952   0.654E-03    0.488E-03
DAV:   3    -0.162644714295E+04    0.21553E-05   -0.60524E-06  6456   0.370E-03    0.133E-03
DAV:   4    -0.162644714254E+04    0.41815E-06   -0.28141E-06  6416   0.287E-03    0.588E-04
DAV:   5    -0.162644714276E+04   -0.22528E-06   -0.15493E-06  6416   0.222E-03
  19 F= -.16264471E+04 E0= -.16264471E+04  d E =-.162707E-04
       N       E                     dE             d eps       ncg     rms          rms(c)
DAV:   1    -0.162644714158E+04    0.96109E-06   -0.78333E-05 12000   0.136E-02    0.454E-03
DAV:   2    -0.162644714471E+04   -0.31396E-05   -0.21115E-06  6416   0.230E-03    0.210E-03
DAV:   3    -0.162644714724E+04   -0.25252E-05   -0.10042E-06  6416   0.162E-03    0.845E-04
DAV:   4    -0.162644714849E+04   -0.12456E-05   -0.41935E-07  6416   0.120E-03    0.374E-04
DAV:   5    -0.162644714898E+04   -0.49303E-06   -0.20660E-07  6416   0.843E-04
  20 F= -.16264471E+04 E0= -.16264472E+04  d E =-.621697E-05
       N       E                     dE             d eps       ncg     rms          rms(c)
DAV:   1    -0.162644716220E+04   -0.13716E-04   -0.11301E-03 12310   0.426E-02    0.455E-03
DAV:   2    -0.162644716072E+04    0.14801E-05   -0.63486E-06  6416   0.413E-03    0.317E-03
DAV:   3    -0.162644715907E+04    0.16522E-05   -0.23744E-06  6391   0.228E-03    0.894E-04
DAV:   4    -0.162644715865E+04    0.41824E-06   -0.10736E-06  6416   0.172E-03    0.395E-04
DAV:   5    -0.162644715874E+04   -0.85767E-07   -0.57871E-07  6399   0.135E-03
  21 F= -.16264472E+04 E0= -.16264472E+04  d E =-.975849E-05
       N       E                     dE             d eps       ncg     rms          rms(c)
DAV:   1    -0.162644716972E+04   -0.11065E-04   -0.20530E-03 12278   0.573E-02    0.578E-03
DAV:   2    -0.162644717125E+04   -0.15376E-05   -0.11720E-05  6896   0.561E-03    0.420E-03
DAV:   3    -0.162644717237E+04   -0.11192E-05   -0.48667E-06  6432   0.320E-03    0.600E-04
DAV:   4    -0.162644717266E+04   -0.28408E-06   -0.20156E-06  6416   0.219E-03    0.406E-04
DAV:   5    -0.162644717270E+04   -0.44487E-07   -0.11093E-06  6408   0.172E-03
  22 F= -.16264472E+04 E0= -.16264472E+04  d E =-.139651E-04
       N       E                     dE             d eps       ncg     rms          rms(c)
DAV:   1    -0.162644717694E+04   -0.42847E-05   -0.62001E-05 11848   0.126E-02    0.440E-03
DAV:   2    -0.162644717198E+04    0.49581E-05   -0.16722E-06  6392   0.213E-03    0.202E-03
DAV:   3    -0.162644716914E+04    0.28420E-05   -0.81201E-07  6392   0.148E-03    0.800E-04
DAV:   4    -0.162644716796E+04    0.11825E-05   -0.30135E-07  6392   0.117E-03    0.358E-04
DAV:   5    -0.162644716745E+04    0.50998E-06   -0.13998E-07  6392   0.747E-04
  23 F= -.16264472E+04 E0= -.16264472E+04  d E =0.525247E-05
       N       E                     dE             d eps       ncg     rms          rms(c)
DAV:   1    -0.162644717296E+04   -0.49995E-05   -0.70016E-04 12310   0.337E-02    0.392E-03
DAV:   2    -0.162644717485E+04   -0.18943E-05   -0.40022E-06  6368   0.327E-03    0.261E-03
DAV:   3    -0.162644717654E+04   -0.16816E-05   -0.15395E-06  6359   0.182E-03    0.762E-04
DAV:   4    -0.162644717717E+04   -0.63299E-06   -0.66380E-07  6368   0.132E-03    0.351E-04
DAV:   5    -0.162644717720E+04   -0.36398E-07   -0.34763E-07  6367   0.103E-03
  24 F= -.16264472E+04 E0= -.16264472E+04  d E =-.975473E-05
       N       E                     dE             d eps       ncg     rms          rms(c)
DAV:   1    -0.162644718359E+04   -0.64231E-05   -0.86475E-04 12278   0.372E-02    0.374E-03
DAV:   2    -0.162644718340E+04    0.18936E-06   -0.50368E-06  6368   0.368E-03    0.273E-03
DAV:   3    -0.162644718284E+04    0.55875E-06   -0.20900E-06  6352   0.212E-03    0.415E-04
DAV:   4    -0.162644718287E+04   -0.26452E-07   -0.89718E-07  6368   0.149E-03    0.301E-04
DAV:   5    -0.162644718294E+04   -0.71459E-07   -0.49931E-07  6368   0.117E-03
  25 F= -.16264472E+04 E0= -.16264472E+04  d E =-.573650E-05
       N       E                     dE             d eps       ncg     rms          rms(c)
DAV:   1    -0.162644718349E+04   -0.62288E-06   -0.55678E-04 12294   0.305E-02    0.463E-03
DAV:   2    -0.162644718638E+04   -0.28837E-05   -0.42524E-06  6368   0.335E-03    0.270E-03
DAV:   3    -0.162644718871E+04   -0.23369E-05   -0.17789E-06  6359   0.207E-03    0.104E-03
DAV:   4    -0.162644718989E+04   -0.11736E-05   -0.80373E-07  6365   0.159E-03    0.514E-04
DAV:   5    -0.162644719017E+04   -0.28700E-06   -0.42313E-07  6365   0.121E-03
  26 F= -.16264472E+04 E0= -.16264472E+04  d E =-.723271E-05
       N       E                     dE             d eps       ncg     rms          rms(c)
DAV:   1    -0.162644719480E+04   -0.49181E-05   -0.32181E-05  7806   0.919E-03    0.278E-03
DAV:   2    -0.162644719187E+04    0.29324E-05   -0.17632E-06  6437   0.284E-03    0.140E-03
DAV:   3    -0.162644718961E+04    0.22622E-05   -0.34356E-07  6397   0.884E-04    0.569E-04
DAV:   4    -0.162644718890E+04    0.70883E-06   -0.14442E-07  6389   0.870E-04    0.273E-04
DAV:   5    -0.162644718845E+04    0.44800E-06   -0.79322E-08  6373   0.489E-04
  27 F= -.16264472E+04 E0= -.16264472E+04  d E =0.172027E-05
       N       E                     dE             d eps       ncg     rms          rms(c)
DAV:   1    -0.162644719135E+04   -0.24460E-05   -0.34255E-04 12158   0.234E-02    0.231E-03
DAV:   2    -0.162644719146E+04   -0.11412E-06   -0.19163E-06  6341   0.224E-03    0.169E-03
DAV:   3    -0.162644719150E+04   -0.40163E-07   -0.78999E-07  6317   0.126E-03    0.255E-04
DAV:   4    -0.162644719153E+04   -0.30720E-07   -0.31499E-07  6317   0.841E-04    0.175E-04
DAV:   5    -0.162644719155E+04   -0.16132E-07   -0.17324E-07  6301   0.658E-04
  28 F= -.16264472E+04 E0= -.16264472E+04  d E =-.309512E-05
       N       E                     dE             d eps       ncg     rms          rms(c)
DAV:   1    -0.162644719902E+04   -0.74876E-05   -0.71168E-03 12186   0.107E-01    0.103E-02
DAV:   2    -0.162644720195E+04   -0.29257E-05   -0.50777E-05 12264   0.101E-02    0.792E-03
DAV:   3    -0.162644720066E+04    0.12835E-05   -0.11315E-05  6626   0.518E-03    0.118E-03
DAV:   4    -0.162644720088E+04   -0.21906E-06   -0.23960E-06  6416   0.298E-03    0.980E-04
DAV:   5    -0.162644720093E+04   -0.49000E-07   -0.10904E-06  6416   0.195E-03
  29 F= -.16264472E+04 E0= -.16264472E+04  d E =-.938176E-05
