       N       E                     dE             d eps       ncg     rms          rms(c)
DAV:   1     0.194142679094E+04    0.19414E+04   -0.27681E+05 11172   0.142E+03
DAV:   2    -0.118733453057E+04   -0.31288E+04   -0.30085E+04 12918   0.266E+02
DAV:   3    -0.157776216479E+04   -0.39043E+03   -0.35469E+03 17520   0.822E+01
DAV:   4    -0.160286260122E+04   -0.25100E+02   -0.22652E+02 15928   0.162E+01
DAV:   5    -0.160400173526E+04   -0.11391E+01   -0.11107E+01 16720   0.444E+00    0.380E+01
DAV:   6    -0.157047036359E+04    0.33531E+02   -0.12697E+02 17720   0.161E+01    0.233E+01
DAV:   7    -0.155752619107E+04    0.12944E+02   -0.99766E+01 17088   0.159E+01    0.179E+01
DAV:   8    -0.154948190362E+04    0.80443E+01   -0.66363E+01 16648   0.118E+01    0.122E+01
DAV:   9    -0.154116210341E+04    0.83198E+01   -0.30806E+01 15904   0.885E+00    0.362E+00
DAV:  10    -0.154097329987E+04    0.18880E+00   -0.66431E+00 16208   0.348E+00    0.150E+00
DAV:  11    -0.154097608208E+04   -0.27822E-02   -0.70468E-01 15048   0.124E+00    0.109E+00
DAV:  12    -0.154095610356E+04    0.19979E-01   -0.21278E-01 15016   0.669E-01    0.691E-01
DAV:  13    -0.154094518950E+04    0.10914E-01   -0.83500E-02 14144   0.453E-01    0.446E-01
DAV:  14    -0.154093785744E+04    0.73321E-02   -0.25309E-02 14480   0.248E-01    0.240E-01
DAV:  15    -0.154093602714E+04    0.18303E-02   -0.96595E-03 16080   0.153E-01    0.123E-01
DAV:  16    -0.154093566911E+04    0.35802E-03   -0.37702E-03 16016   0.889E-02    0.549E-02
DAV:  17    -0.154093568255E+04   -0.13432E-04   -0.11900E-03 14752   0.477E-02    0.308E-02
DAV:  18    -0.154093567896E+04    0.35841E-05   -0.27514E-04 15808   0.270E-02    0.224E-02
DAV:  19    -0.154093565820E+04    0.20760E-04   -0.96096E-05 13400   0.157E-02    0.130E-02
DAV:  20    -0.154093564599E+04    0.12209E-04   -0.31090E-05  7264   0.958E-03    0.526E-03
DAV:  21    -0.154093564241E+04    0.35876E-05   -0.11310E-05  6576   0.630E-03
   1 F= -.15409356E+04 E0= -.15409405E+04  d E =-.154094E+04
       N       E                     dE             d eps       ncg     rms          rms(c)
DAV:   1    -0.154451069566E+04   -0.35750E+01   -0.26741E+03 11172   0.800E+01    0.276E+01
DAV:   2    -0.151816171411E+04    0.26349E+02   -0.16697E+02 18976   0.189E+01    0.192E+01
DAV:   3    -0.150881658624E+04    0.93451E+01   -0.99711E+01 18488   0.142E+01    0.149E+01
DAV:   4    -0.150156705329E+04    0.72495E+01   -0.45358E+01 20120   0.900E+00    0.105E+01
DAV:   5    -0.149692659635E+04    0.46405E+01   -0.29181E+01 18320   0.662E+00    0.472E+00
DAV:   6    -0.149639581303E+04    0.53078E+00   -0.88169E+00 18296   0.378E+00    0.317E+00
DAV:   7    -0.149611059671E+04    0.28522E+00   -0.18515E+00 17576   0.190E+00    0.207E+00
DAV:   8    -0.149604389868E+04    0.66698E-01   -0.49965E-01 17584   0.770E-01    0.114E+00
DAV:   9    -0.149603356676E+04    0.10332E-01   -0.26748E-01 17752   0.521E-01    0.550E-01
DAV:  10    -0.149603763274E+04   -0.40660E-02   -0.96703E-02 18320   0.391E-01    0.544E-01
DAV:  11    -0.149602583383E+04    0.11799E-01   -0.42622E-02 18344   0.257E-01    0.237E-01
DAV:  12    -0.149602490268E+04    0.93115E-03   -0.14894E-02 18128   0.133E-01    0.115E-01
DAV:  13    -0.149602551093E+04   -0.60825E-03   -0.31242E-03 17296   0.740E-02    0.911E-02
DAV:  14    -0.149602565027E+04   -0.13934E-03   -0.18812E-03 17888   0.564E-02    0.630E-02
DAV:  15    -0.149602564719E+04    0.30736E-05   -0.84091E-04 16784   0.352E-02    0.373E-02
DAV:  16    -0.149602561824E+04    0.28954E-04   -0.30541E-04 17784   0.208E-02    0.163E-02
DAV:  17    -0.149602561923E+04   -0.99261E-06   -0.61954E-05 11192   0.110E-02
   2 F= -.14960256E+04 E0= -.14960285E+04  d E =0.449100E+02
       N       E                     dE             d eps       ncg     rms          rms(c)
DAV:   1    -0.157432111305E+04   -0.78295E+02   -0.13466E+03 11172   0.629E+01    0.193E+01
DAV:   2    -0.155998034794E+04    0.14341E+02   -0.49086E+01 17376   0.117E+01    0.106E+01
DAV:   3    -0.155671077804E+04    0.32696E+01   -0.33647E+01 17800   0.871E+00    0.845E+00
DAV:   4    -0.155394799927E+04    0.27628E+01   -0.15371E+01 17688   0.584E+00    0.562E+00
DAV:   5    -0.155227777714E+04    0.16702E+01   -0.83861E+00 16184   0.431E+00    0.194E+00
DAV:   6    -0.155218570105E+04    0.92076E-01   -0.21260E+00 15512   0.199E+00    0.959E-01
DAV:   7    -0.155219294082E+04   -0.72398E-02   -0.25674E-01 14344   0.771E-01    0.760E-01
DAV:   8    -0.155219336064E+04   -0.41982E-03   -0.61239E-02 15400   0.338E-01    0.439E-01
DAV:   9    -0.155220659366E+04   -0.13233E-01   -0.68537E-02 16320   0.299E-01    0.284E-01
DAV:  10    -0.155220691662E+04   -0.32296E-03   -0.13153E-02 15432   0.191E-01    0.217E-01
DAV:  11    -0.155220543822E+04    0.14784E-02   -0.61849E-03 16968   0.115E-01    0.103E-01
DAV:  12    -0.155220543145E+04    0.67742E-05   -0.33203E-03 16888   0.697E-02    0.490E-02
DAV:  13    -0.155220577261E+04   -0.34116E-03   -0.71005E-04 14960   0.360E-02    0.311E-02
DAV:  14    -0.155220579945E+04   -0.26844E-04   -0.20919E-04 15608   0.231E-02    0.181E-02
DAV:  15    -0.155220579368E+04    0.57759E-05   -0.63322E-05 11864   0.115E-02
   3 F= -.15522058E+04 E0= -.15522278E+04  d E =-.561802E+02
       N       E                     dE             d eps       ncg     rms          rms(c)
DAV:   1    -0.155267337979E+04   -0.46758E+00   -0.31295E+01 11172   0.791E+00    0.132E+00
DAV:   2    -0.155264176424E+04    0.31616E-01   -0.51400E-01 16200   0.860E-01    0.779E-01
DAV:   3    -0.155263562623E+04    0.61380E-02   -0.13927E-01 18272   0.545E-01    0.664E-01
DAV:   4    -0.155261544076E+04    0.20185E-01   -0.72470E-02 17632   0.421E-01    0.359E-01
DAV:   5    -0.155261006110E+04    0.53797E-02   -0.34569E-02 15176   0.264E-01    0.127E-01
DAV:   6    -0.155260992605E+04    0.13505E-03   -0.70968E-03 15288   0.129E-01    0.840E-02
DAV:   7    -0.155260985495E+04    0.71104E-04   -0.17035E-03 15896   0.667E-02    0.604E-02
DAV:   8    -0.155260980291E+04    0.52034E-04   -0.56673E-04 15512   0.349E-02    0.337E-02
DAV:   9    -0.155260983458E+04   -0.31669E-04   -0.24487E-04 15384   0.218E-02    0.219E-02
DAV:  10    -0.155260984252E+04   -0.79330E-05   -0.87758E-05 13568   0.161E-02
   4 F= -.15526098E+04 E0= -.15526318E+04  d E =-.404049E+00
       N       E                     dE             d eps       ncg     rms          rms(c)
DAV:   1    -0.155267408674E+04   -0.64252E-01   -0.46603E+00 11172   0.292E+00    0.496E-01
DAV:   2    -0.155268017267E+04   -0.60859E-02   -0.13713E-01 17944   0.586E-01    0.459E-01
DAV:   3    -0.155266855998E+04    0.11613E-01   -0.55802E-02 17992   0.374E-01    0.250E-01
DAV:   4    -0.155266621833E+04    0.23416E-02   -0.11088E-02 17464   0.153E-01    0.161E-01
DAV:   5    -0.155266529678E+04    0.92156E-03   -0.48716E-03 15456   0.101E-01    0.871E-02
DAV:   6    -0.155266509008E+04    0.20670E-03   -0.20031E-03 15216   0.699E-02    0.541E-02
DAV:   7    -0.155266495193E+04    0.13815E-03   -0.63494E-04 15776   0.429E-02    0.284E-02
DAV:   8    -0.155266495006E+04    0.18693E-05   -0.15340E-04 14912   0.164E-02    0.178E-02
DAV:   9    -0.155266495246E+04   -0.24027E-05   -0.44439E-05  9408   0.108E-02
   5 F= -.15526650E+04 E0= -.15526868E+04  d E =-.551099E-01
       N       E                     dE             d eps       ncg     rms          rms(c)
DAV:   1    -0.155268613442E+04   -0.21184E-01   -0.23331E+00 11186   0.204E+00    0.244E-01
DAV:   2    -0.155269048963E+04   -0.43552E-02   -0.43583E-02 17304   0.307E-01    0.265E-01
DAV:   3    -0.155268681176E+04    0.36779E-02   -0.14626E-02 17856   0.194E-01    0.137E-01
DAV:   4    -0.155268644301E+04    0.36875E-03   -0.27595E-03 16328   0.739E-02    0.952E-02
DAV:   5    -0.155268625408E+04    0.18893E-03   -0.16242E-03 15024   0.581E-02    0.449E-02
DAV:   6    -0.155268622979E+04    0.24288E-04   -0.57450E-04 16200   0.396E-02    0.278E-02
DAV:   7    -0.155268619712E+04    0.32670E-04   -0.19466E-04 15832   0.221E-02    0.130E-02
DAV:   8    -0.155268619016E+04    0.69559E-05   -0.32797E-05  7600   0.925E-03
   6 F= -.15526862E+04 E0= -.15527079E+04  d E =-.212377E-01
       N       E                     dE             d eps       ncg     rms          rms(c)
DAV:   1    -0.155269567080E+04   -0.94737E-02   -0.57393E-01 11249   0.105E+00    0.209E-01
DAV:   2    -0.155269623510E+04   -0.56431E-03   -0.18790E-02 18120   0.230E-01    0.196E-01
DAV:   3    -0.155269400218E+04    0.22329E-02   -0.95256E-03 18008   0.156E-01    0.102E-01
DAV:   4    -0.155269356891E+04    0.43327E-03   -0.19471E-03 16328   0.634E-02    0.655E-02
DAV:   5    -0.155269334353E+04    0.22537E-03   -0.92844E-04 15112   0.464E-02    0.328E-02
DAV:   6    -0.155269329141E+04    0.52124E-04   -0.33519E-04 15464   0.301E-02    0.216E-02
DAV:   7    -0.155269326417E+04    0.27238E-04   -0.10423E-04 13560   0.174E-02    0.110E-02
DAV:   8    -0.155269326589E+04   -0.17133E-05   -0.21600E-05  6768   0.756E-03
   7 F= -.15526933E+04 E0= -.15527149E+04  d E =-.707572E-02
       N       E                     dE             d eps       ncg     rms          rms(c)
DAV:   1    -0.155269885698E+04   -0.55928E-02   -0.40390E-01 11214   0.861E-01    0.114E-01
DAV:   2    -0.155269950386E+04   -0.64688E-03   -0.66404E-03 17176   0.121E-01    0.116E-01
DAV:   3    -0.155269883420E+04    0.66966E-03   -0.25420E-03 17848   0.817E-02    0.621E-02
DAV:   4    -0.155269877684E+04    0.57365E-04   -0.59702E-04 15776   0.342E-02    0.385E-02
DAV:   5    -0.155269876167E+04    0.15163E-04   -0.33252E-04 15248   0.279E-02    0.180E-02
DAV:   6    -0.155269875769E+04    0.39804E-05   -0.10076E-04 13888   0.176E-02    0.101E-02
DAV:   7    -0.155269875408E+04    0.36119E-05   -0.24973E-05  6912   0.929E-03
   8 F= -.15526988E+04 E0= -.15527203E+04  d E =-.548820E-02
       N       E                     dE             d eps       ncg     rms          rms(c)
DAV:   1    -0.155270187516E+04   -0.31175E-02   -0.26822E-01 11214   0.690E-01    0.971E-02
DAV:   2    -0.155270266925E+04   -0.79409E-03   -0.67173E-03 18136   0.137E-01    0.122E-01
DAV:   3    -0.155270169884E+04    0.97042E-03   -0.31886E-03 17880   0.908E-02    0.503E-02
DAV:   4    -0.155270162015E+04    0.78684E-04   -0.44783E-04 16096   0.294E-02    0.350E-02
DAV:   5    -0.155270157033E+04    0.49826E-04   -0.21322E-04 15472   0.220E-02    0.192E-02
DAV:   6    -0.155270155281E+04    0.17516E-04   -0.88290E-05 13664   0.162E-02    0.118E-02
DAV:   7    -0.155270154411E+04    0.86967E-05   -0.26297E-05  7264   0.967E-03
   9 F= -.15527015E+04 E0= -.15527230E+04  d E =-.279003E-02
       N       E                     dE             d eps       ncg     rms          rms(c)
DAV:   1    -0.155270290417E+04   -0.13514E-02   -0.12526E-01 11228   0.476E-01    0.594E-02
DAV:   2    -0.155270315941E+04   -0.25524E-03   -0.19659E-03 17240   0.672E-02    0.656E-02
DAV:   3    -0.155270293114E+04    0.22827E-03   -0.79414E-04 17856   0.460E-02    0.326E-02
DAV:   4    -0.155270292826E+04    0.28810E-05   -0.16169E-04 14968   0.178E-02    0.193E-02
DAV:   5    -0.155270293259E+04   -0.43234E-05   -0.76318E-05 12904   0.143E-02
  10 F= -.15527029E+04 E0= -.15527244E+04  d E =-.138847E-02
       N       E                     dE             d eps       ncg     rms          rms(c)
DAV:   1    -0.155270385366E+04   -0.92540E-03   -0.47640E-02 11312   0.299E-01    0.515E-02
DAV:   2    -0.155270390073E+04   -0.47068E-04   -0.11822E-03 18240   0.569E-02    0.519E-02
DAV:   3    -0.155270373746E+04    0.16327E-03   -0.58737E-04 17976   0.390E-02    0.257E-02
DAV:   4    -0.155270370424E+04    0.33216E-04   -0.11177E-04 14464   0.150E-02    0.167E-02
DAV:   5    -0.155270367933E+04    0.24916E-04   -0.52357E-05 10368   0.121E-02    0.850E-03
DAV:   6    -0.155270367112E+04    0.82060E-05   -0.15734E-05  6816   0.854E-03
  11 F= -.15527037E+04 E0= -.15527251E+04  d E =-.738536E-03
       N       E                     dE             d eps       ncg     rms          rms(c)
DAV:   1    -0.155270430922E+04   -0.62989E-03   -0.59311E-02 11214   0.323E-01    0.351E-02
DAV:   2    -0.155270445304E+04   -0.14382E-03   -0.91497E-04 17776   0.464E-02    0.448E-02
DAV:   3    -0.155270433824E+04    0.11480E-03   -0.36034E-04 17826   0.310E-02    0.204E-02
DAV:   4    -0.155270433836E+04   -0.11645E-06   -0.51477E-05 10208   0.108E-02    0.128E-02
DAV:   5    -0.155270434209E+04   -0.37282E-05   -0.23311E-05  7200   0.955E-03
  12 F= -.15527043E+04 E0= -.15527258E+04  d E =-.670966E-03
       N       E                     dE             d eps       ncg     rms          rms(c)
DAV:   1    -0.155270477781E+04   -0.43944E-03   -0.37218E-02 11298   0.257E-01    0.333E-02
DAV:   2    -0.155270483566E+04   -0.57859E-04   -0.70563E-04 18072   0.419E-02    0.381E-02
DAV:   3    -0.155270474680E+04    0.88864E-04   -0.29880E-04 17728   0.280E-02    0.178E-02
DAV:   4    -0.155270473249E+04    0.14306E-04   -0.39076E-05  8960   0.981E-03    0.118E-02
DAV:   5    -0.155270472145E+04    0.11040E-04   -0.20952E-05  6696   0.822E-03    0.621E-03
DAV:   6    -0.155270471693E+04    0.45297E-05   -0.81375E-06  6264   0.642E-03
  13 F= -.15527047E+04 E0= -.15527261E+04  d E =-.374837E-03
       N       E                     dE             d eps       ncg     rms          rms(c)
DAV:   1    -0.155270493147E+04   -0.21001E-03   -0.13912E-02 11298   0.160E-01    0.209E-02
DAV:   2    -0.155270495354E+04   -0.22073E-04   -0.16496E-04 16152   0.178E-02    0.172E-02
DAV:   3    -0.155270494443E+04    0.91057E-05   -0.40660E-05  9426   0.118E-02    0.111E-02
DAV:   4    -0.155270495185E+04   -0.74200E-05   -0.18019E-05  6336   0.712E-03    0.497E-03
DAV:   5    -0.155270495627E+04   -0.44195E-05   -0.67875E-06  6184   0.549E-03
  14 F= -.15527050E+04 E0= -.15527264E+04  d E =-.239349E-03
       N       E                     dE             d eps       ncg     rms          rms(c)
DAV:   1    -0.155270519018E+04   -0.23832E-03   -0.17097E-02 11270   0.174E-01    0.207E-02
DAV:   2    -0.155270521454E+04   -0.24362E-04   -0.27369E-04 18104   0.264E-02    0.247E-02
DAV:   3    -0.155270517681E+04    0.37727E-04   -0.11261E-04 14520   0.177E-02    0.114E-02
DAV:   4    -0.155270517047E+04    0.63423E-05   -0.16354E-05  6672   0.714E-03    0.754E-03
DAV:   5    -0.155270516448E+04    0.59874E-05   -0.93089E-06  6192   0.589E-03
  15 F= -.15527052E+04 E0= -.15527266E+04  d E =-.208208E-03
       N       E                     dE             d eps       ncg     rms          rms(c)
DAV:   1    -0.155270534267E+04   -0.17220E-03   -0.18387E-02 11256   0.179E-01    0.174E-02
DAV:   2    -0.155270536987E+04   -0.27197E-04   -0.20428E-04 16968   0.201E-02    0.181E-02
DAV:   3    -0.155270535515E+04    0.14720E-04   -0.42941E-05  9648   0.124E-02    0.108E-02
DAV:   4    -0.155270535762E+04   -0.24724E-05   -0.17442E-05  6216   0.659E-03    0.525E-03
DAV:   5    -0.155270536031E+04   -0.26868E-05   -0.75953E-06  6160   0.582E-03
  16 F= -.15527054E+04 E0= -.15527267E+04  d E =-.195828E-03
       N       E                     dE             d eps       ncg     rms          rms(c)
DAV:   1    -0.155270548173E+04   -0.12411E-03   -0.79242E-03 11284   0.119E-01    0.154E-02
DAV:   2    -0.155270548028E+04    0.14519E-05   -0.11186E-04 14952   0.172E-02    0.151E-02
DAV:   3    -0.155270546594E+04    0.14341E-04   -0.41638E-05  9480   0.121E-02    0.788E-03
DAV:   4    -0.155270546081E+04    0.51332E-05   -0.11510E-05  6096   0.583E-03    0.502E-03
DAV:   5    -0.155270545581E+04    0.49948E-05   -0.60875E-06  5968   0.475E-03
  17 F= -.15527055E+04 E0= -.15527268E+04  d E =-.955018E-04
       N       E                     dE             d eps       ncg     rms          rms(c)
DAV:   1    -0.155270554134E+04   -0.80529E-04   -0.58241E-03 11284   0.102E-01    0.113E-02
DAV:   2    -0.155270555163E+04   -0.10298E-04   -0.53669E-05 10968   0.109E-02    0.973E-03
DAV:   3    -0.155270554956E+04    0.20769E-05   -0.14384E-05  6833   0.730E-03    0.651E-03
DAV:   4    -0.155270555401E+04   -0.44587E-05   -0.74055E-06  5904   0.417E-03    0.289E-03
DAV:   5    -0.155270555623E+04   -0.22125E-05   -0.32853E-06  5904   0.344E-03
  18 F= -.15527056E+04 E0= -.15527269E+04  d E =-.100416E-03
       N       E                     dE             d eps       ncg     rms          rms(c)
DAV:   1    -0.155270565919E+04   -0.10518E-03   -0.90926E-03 11256   0.126E-01    0.123E-02
DAV:   2    -0.155270566399E+04   -0.47960E-05   -0.95617E-05 14456   0.140E-02    0.120E-02
DAV:   3    -0.155270565686E+04    0.71301E-05   -0.19374E-05  7401   0.910E-03    0.755E-03
DAV:   4    -0.155270565401E+04    0.28447E-05   -0.94728E-06  5904   0.485E-03    0.428E-03
DAV:   5    -0.155270565182E+04    0.21921E-05   -0.50737E-06  5904   0.448E-03
  19 F= -.15527057E+04 E0= -.15527270E+04  d E =-.955926E-04
       N       E                     dE             d eps       ncg     rms          rms(c)
DAV:   1    -0.155270571898E+04   -0.64964E-04   -0.58845E-03 11270   0.102E-01    0.978E-03
DAV:   2    -0.155270572788E+04   -0.89036E-05   -0.49797E-05 10720   0.105E-02    0.880E-03
DAV:   3    -0.155270572631E+04    0.15701E-05   -0.13027E-05  6632   0.670E-03    0.591E-03
DAV:   4    -0.155270572976E+04   -0.34484E-05   -0.63002E-06  5880   0.372E-03    0.241E-03
DAV:   5    -0.155270573136E+04   -0.15987E-05   -0.27831E-06  5880   0.311E-03
  20 F= -.15527057E+04 E0= -.15527271E+04  d E =-.795364E-04
       N       E                     dE             d eps       ncg     rms          rms(c)
DAV:   1    -0.155270578946E+04   -0.59706E-04   -0.33724E-03 11270   0.773E-02    0.893E-03
DAV:   2    -0.155270578442E+04    0.50408E-05   -0.24716E-05  7384   0.879E-03    0.687E-03
DAV:   3    -0.155270578223E+04    0.21932E-05   -0.10558E-05  6432   0.667E-03    0.472E-03
DAV:   4    -0.155270577906E+04    0.31693E-05   -0.51824E-06  5880   0.381E-03    0.268E-03
DAV:   5    -0.155270577703E+04    0.20340E-05   -0.30961E-06  5880   0.310E-03
  21 F= -.15527058E+04 E0= -.15527271E+04  d E =-.456695E-04
       N       E                     dE             d eps       ncg     rms          rms(c)
DAV:   1    -0.155270582673E+04   -0.47672E-04   -0.40820E-03 11256   0.844E-02    0.826E-03
DAV:   2    -0.155270583168E+04   -0.49489E-05   -0.28835E-05  8408   0.802E-03    0.637E-03
DAV:   3    -0.155270583234E+04   -0.66113E-06   -0.95149E-06  6017   0.531E-03    0.483E-03
DAV:   4    -0.155270583509E+04   -0.27452E-05   -0.59464E-06  5880   0.395E-03    0.183E-03
DAV:   5    -0.155270583625E+04   -0.11673E-05   -0.30912E-06  5880   0.314E-03
  22 F= -.15527058E+04 E0= -.15527272E+04  d E =-.592282E-04
       N       E                     dE             d eps       ncg     rms          rms(c)
DAV:   1    -0.155270588614E+04   -0.51055E-04   -0.37294E-03 11256   0.805E-02    0.791E-03
DAV:   2    -0.155270588360E+04    0.25387E-05   -0.25166E-05  7360   0.813E-03    0.597E-03
DAV:   3    -0.155270588285E+04    0.75633E-06   -0.99764E-06  6041   0.575E-03    0.453E-03
DAV:   4    -0.155270588053E+04    0.23202E-05   -0.55773E-06  5880   0.391E-03    0.230E-03
DAV:   5    -0.155270587939E+04    0.11362E-05   -0.33234E-06  5880   0.320E-03
  23 F= -.15527059E+04 E0= -.15527272E+04  d E =-.431366E-04
       N       E                     dE             d eps       ncg     rms          rms(c)
DAV:   1    -0.155270591109E+04   -0.30559E-04   -0.22333E-03 11256   0.624E-02    0.626E-03
DAV:   2    -0.155270591493E+04   -0.38460E-05   -0.15873E-05  5928   0.613E-03    0.462E-03
DAV:   3    -0.155270591590E+04   -0.97362E-06   -0.63912E-06  5873   0.426E-03    0.351E-03
DAV:   4    -0.155270591812E+04   -0.22135E-05   -0.38922E-06  5880   0.322E-03    0.162E-03
DAV:   5    -0.155270591931E+04   -0.11924E-05   -0.22560E-06  5880   0.261E-03
  24 F= -.15527059E+04 E0= -.15527273E+04  d E =-.399204E-04
       N       E                     dE             d eps       ncg     rms          rms(c)
DAV:   1    -0.155270595645E+04   -0.38328E-04   -0.25434E-03 11242   0.664E-02    0.643E-03
DAV:   2    -0.155270595464E+04    0.18104E-05   -0.17307E-05  7520   0.662E-03    0.488E-03
DAV:   3    -0.155270595416E+04    0.47686E-06   -0.68240E-06  5978   0.461E-03    0.374E-03
DAV:   4    -0.155270595238E+04    0.17782E-05   -0.39571E-06  5859   0.321E-03    0.181E-03
DAV:   5    -0.155270595159E+04    0.79295E-06   -0.23307E-06  5859   0.265E-03
  25 F= -.15527060E+04 E0= -.15527273E+04  d E =-.322774E-04
       N       E                     dE             d eps       ncg     rms          rms(c)
DAV:   1    -0.155270598277E+04   -0.30384E-04   -0.27934E-03 11242   0.696E-02    0.636E-03
DAV:   2    -0.155270598592E+04   -0.31521E-05   -0.17978E-05  6560   0.643E-03    0.479E-03
DAV:   3    -0.155270598682E+04   -0.90318E-06   -0.69133E-06  5904   0.418E-03    0.365E-03
DAV:   4    -0.155270598868E+04   -0.18596E-05   -0.43310E-06  5859   0.336E-03    0.129E-03
DAV:   5    -0.155270598938E+04   -0.69991E-06   -0.23730E-06  5859   0.263E-03
  26 F= -.15527060E+04 E0= -.15527273E+04  d E =-.377922E-04
       N       E                     dE             d eps       ncg     rms          rms(c)
DAV:   1    -0.155270601637E+04   -0.27694E-04   -0.16512E-03 11256   0.537E-02    0.564E-03
DAV:   2    -0.155270601348E+04    0.28908E-05   -0.12280E-05  6368   0.561E-03    0.400E-03
DAV:   3    -0.155270601285E+04    0.63591E-06   -0.50790E-06  5896   0.410E-03    0.310E-03
DAV:   4    -0.155270601110E+04    0.17477E-05   -0.28294E-06  5859   0.283E-03    0.168E-03
DAV:   5    -0.155270601001E+04    0.10903E-05   -0.17444E-06  5859   0.228E-03
  27 F= -.15527060E+04 E0= -.15527273E+04  d E =-.206289E-04
       N       E                     dE             d eps       ncg     rms          rms(c)
DAV:   1    -0.155270602911E+04   -0.18011E-04   -0.13065E-03 11256   0.477E-02    0.464E-03
DAV:   2    -0.155270603154E+04   -0.24326E-05   -0.90283E-06  6307   0.461E-03    0.349E-03
DAV:   3    -0.155270603213E+04   -0.58712E-06   -0.36169E-06  5859   0.314E-03    0.267E-03
DAV:   4    -0.155270603365E+04   -0.15228E-05   -0.22631E-06  5838   0.238E-03    0.115E-03
DAV:   5    -0.155270603436E+04   -0.70538E-06   -0.12845E-06  5838   0.194E-03
  28 F= -.15527060E+04 E0= -.15527274E+04  d E =-.243490E-04
       N       E                     dE             d eps       ncg     rms          rms(c)
DAV:   1    -0.155270606274E+04   -0.29090E-04   -0.25987E-03 11242   0.670E-02    0.600E-03
DAV:   2    -0.155270606195E+04    0.79240E-06   -0.15920E-05  7128   0.615E-03    0.452E-03
DAV:   3    -0.155270606180E+04    0.15345E-06   -0.60171E-06  5985   0.396E-03    0.351E-03
DAV:   4    -0.155270606048E+04    0.13194E-05   -0.36413E-06  5859   0.307E-03    0.128E-03
DAV:   5    -0.155270606022E+04    0.25679E-06   -0.20341E-06  5859   0.240E-03
  29 F= -.15527061E+04 E0= -.15527274E+04  d E =-.258626E-04
       N       E                     dE             d eps       ncg     rms          rms(c)
DAV:   1    -0.155270607826E+04   -0.17782E-04   -0.18405E-03 11242   0.567E-02    0.566E-03
DAV:   2    -0.155270608173E+04   -0.34670E-05   -0.12560E-05  6094   0.539E-03    0.396E-03
DAV:   3    -0.155270608307E+04   -0.13479E-05   -0.50647E-06  5838   0.362E-03    0.285E-03
DAV:   4    -0.155270608484E+04   -0.17658E-05   -0.29103E-06  5796   0.289E-03    0.149E-03
DAV:   5    -0.155270608587E+04   -0.10276E-05   -0.17549E-06  5796   0.226E-03
  30 F= -.15527061E+04 E0= -.15527274E+04  d E =-.256469E-04
       N       E                     dE             d eps       ncg     rms          rms(c)
DAV:   1    -0.155270609896E+04   -0.14120E-04   -0.39375E-04 11240   0.266E-02    0.379E-03
DAV:   2    -0.155270609606E+04    0.29032E-05   -0.41887E-06  5754   0.346E-03    0.259E-03
DAV:   3    -0.155270609539E+04    0.66483E-06   -0.19154E-06  5754   0.284E-03    0.191E-03
DAV:   4    -0.155270609401E+04    0.13839E-05   -0.10315E-06  5754   0.171E-03    0.108E-03
DAV:   5    -0.155270609304E+04    0.96752E-06   -0.62421E-07  5754   0.139E-03
  31 F= -.15527061E+04 E0= -.15527274E+04  d E =-.717306E-05
       N       E                     dE             d eps       ncg     rms          rms(c)
DAV:   1    -0.155270611121E+04   -0.17198E-04   -0.16966E-03 11242   0.542E-02    0.480E-03
DAV:   2    -0.155270611198E+04   -0.76864E-06   -0.98382E-06  6303   0.478E-03    0.366E-03
DAV:   3    -0.155270611222E+04   -0.24451E-06   -0.36735E-06  5799   0.297E-03    0.280E-03
DAV:   4    -0.155270611248E+04   -0.25841E-06   -0.24740E-06  5754   0.249E-03    0.678E-04
DAV:   5    -0.155270611260E+04   -0.12113E-06   -0.12076E-06  5754   0.183E-03
  32 F= -.15527061E+04 E0= -.15527274E+04  d E =-.195585E-04
       N       E                     dE             d eps       ncg     rms          rms(c)
DAV:   1    -0.155270617717E+04   -0.64689E-04   -0.39034E-02 11172   0.260E-01    0.223E-02
DAV:   2    -0.155270619546E+04   -0.18297E-04   -0.34245E-04 16608   0.221E-02    0.176E-02
DAV:   3    -0.155270619104E+04    0.44232E-05   -0.17832E-05  7504   0.845E-03    0.140E-02
DAV:   4    -0.155270618292E+04    0.81230E-05   -0.17577E-05  6592   0.766E-03    0.468E-03
DAV:   5    -0.155270618140E+04    0.15162E-05   -0.68281E-06  6096   0.545E-03
  33 F= -.15527062E+04 E0= -.15527275E+04  d E =-.688023E-04
       N       E                     dE             d eps       ncg     rms          rms(c)
DAV:   1    -0.155270613725E+04    0.45672E-04   -0.14450E-02 11172   0.159E-01    0.153E-02
DAV:   2    -0.155270614684E+04   -0.95909E-05   -0.11198E-04 15112   0.134E-02    0.116E-02
DAV:   3    -0.155270614611E+04    0.72997E-06   -0.94397E-06  6245   0.621E-03    0.936E-03
DAV:   4    -0.155270614714E+04   -0.10354E-05   -0.80983E-06  5880   0.510E-03    0.355E-03
DAV:   5    -0.155270614855E+04   -0.14076E-05   -0.33425E-06  5859   0.368E-03
  34 F= -.15527061E+04 E0= -.15527275E+04  d E =0.328523E-04
       N       E                     dE             d eps       ncg     rms          rms(c)
DAV:   1    -0.155270618041E+04   -0.33270E-04   -0.73896E-03 11228   0.113E-01    0.101E-02
DAV:   2    -0.155270618131E+04   -0.90041E-06   -0.49105E-05 10504   0.942E-03    0.795E-03
DAV:   3    -0.155270618046E+04    0.85150E-06   -0.77882E-06  5873   0.502E-03    0.628E-03
DAV:   4    -0.155270617775E+04    0.27063E-05   -0.55872E-06  5859   0.377E-03    0.149E-03
DAV:   5    -0.155270617769E+04    0.61426E-07   -0.17100E-06  5859   0.254E-03
  35 F= -.15527062E+04 E0= -.15527275E+04  d E =-.291435E-04
       N       E                     dE             d eps       ncg     rms          rms(c)
DAV:   1    -0.155270620802E+04   -0.30268E-04   -0.18553E-02 11172   0.179E-01    0.150E-02
DAV:   2    -0.155270621980E+04   -0.11776E-04   -0.16308E-04 15808   0.150E-02    0.119E-02
DAV:   3    -0.155270621863E+04    0.11675E-05   -0.84624E-06  6552   0.554E-03    0.947E-03
DAV:   4    -0.155270621672E+04    0.19113E-05   -0.85702E-06  5936   0.518E-03    0.258E-03
DAV:   5    -0.155270621684E+04   -0.11791E-06   -0.27254E-06  5859   0.344E-03
  36 F= -.15527062E+04 E0= -.15527275E+04  d E =-.391449E-04
       N       E                     dE             d eps       ncg     rms          rms(c)
DAV:   1    -0.155270620807E+04    0.86490E-05   -0.30578E-03 11228   0.735E-02    0.820E-03
DAV:   2    -0.155270620258E+04    0.54933E-05   -0.16315E-05  6012   0.660E-03    0.571E-03
DAV:   3    -0.155270620108E+04    0.15007E-05   -0.55800E-06  5789   0.436E-03    0.449E-03
DAV:   4    -0.155270619752E+04    0.35572E-05   -0.33645E-06  5754   0.316E-03    0.206E-03
DAV:   5    -0.155270619595E+04    0.15716E-05   -0.18109E-06  5754   0.225E-03
  37 F= -.15527062E+04 E0= -.15527275E+04  d E =0.208898E-04
       N       E                     dE             d eps       ncg     rms          rms(c)
DAV:   1    -0.155270621009E+04   -0.12569E-04   -0.35920E-03 11228   0.792E-02    0.709E-03
DAV:   2    -0.155270621296E+04   -0.28706E-05   -0.16568E-05  5998   0.651E-03    0.520E-03
DAV:   3    -0.155270621369E+04   -0.72702E-06   -0.51111E-06  5775   0.369E-03    0.401E-03
DAV:   4    -0.155270621530E+04   -0.16101E-05   -0.32464E-06  5754   0.301E-03    0.156E-03
DAV:   5    -0.155270621604E+04   -0.74769E-06   -0.16427E-06  5754   0.215E-03
  38 F= -.15527062E+04 E0= -.15527275E+04  d E =-.200964E-04
       N       E                     dE             d eps       ncg     rms          rms(c)
DAV:   1    -0.155270622206E+04   -0.67652E-05   -0.95877E-04 11242   0.406E-02    0.353E-03
DAV:   2    -0.155270622198E+04    0.86787E-07   -0.65328E-06  5712   0.390E-03    0.281E-03
DAV:   3    -0.155270622196E+04    0.15260E-07   -0.25349E-06  5712   0.255E-03    0.217E-03
DAV:   4    -0.155270622147E+04    0.48715E-06   -0.16008E-06  5712   0.193E-03    0.775E-04
DAV:   5    -0.155270622140E+04    0.73374E-07   -0.86395E-07  5712   0.157E-03
  39 F= -.15527062E+04 E0= -.15527275E+04  d E =-.535499E-05
       N       E                     dE             d eps       ncg     rms          rms(c)
DAV:   1    -0.155270621673E+04    0.47474E-05   -0.31288E-04 11146   0.237E-02    0.276E-03
DAV:   2    -0.155270621836E+04   -0.16354E-05   -0.14878E-06  5712   0.213E-03    0.177E-03
DAV:   3    -0.155270621889E+04   -0.52412E-06   -0.46537E-07  5705   0.141E-03    0.138E-03
DAV:   4    -0.155270621961E+04   -0.72646E-06   -0.22880E-07  5712   0.982E-04    0.760E-04
DAV:   5    -0.155270622023E+04   -0.61622E-06   -0.13735E-07  5712   0.661E-04
  40 F= -.15527062E+04 E0= -.15527275E+04  d E =0.117180E-05
       N       E                     dE             d eps       ncg     rms          rms(c)
DAV:   1    -0.155270622620E+04   -0.65935E-05   -0.82191E-04 11242   0.378E-02    0.321E-03
DAV:   2    -0.155270622604E+04    0.16933E-06   -0.40373E-06  5712   0.317E-03    0.248E-03
DAV:   3    -0.155270622597E+04    0.67743E-07   -0.13221E-06  5712   0.179E-03    0.195E-03
DAV:   4    -0.155270622553E+04    0.43862E-06   -0.90288E-07  5712   0.142E-03    0.514E-04
DAV:   5    -0.155270622551E+04    0.17988E-07   -0.40753E-07  5712   0.101E-03
  41 F= -.15527062E+04 E0= -.15527275E+04  d E =-.528357E-05
       N       E                     dE             d eps       ncg     rms          rms(c)
DAV:   1    -0.155270623622E+04   -0.10689E-04   -0.68652E-03 11200   0.109E-01    0.920E-03
DAV:   2    -0.155270623945E+04   -0.32269E-05   -0.53303E-05 11088   0.923E-03    0.739E-03
DAV:   3    -0.155270623925E+04    0.19478E-06   -0.73387E-06  5962   0.473E-03    0.585E-03
DAV:   4    -0.155270623820E+04    0.10473E-05   -0.45848E-06  5817   0.346E-03    0.130E-03
DAV:   5    -0.155270623826E+04   -0.54814E-07   -0.15373E-06  5817   0.225E-03
  42 F= -.15527062E+04 E0= -.15527275E+04  d E =-.127464E-04
       N       E                     dE             d eps       ncg     rms          rms(c)
DAV:   1    -0.155270624330E+04   -0.50925E-05   -0.49788E-03 11186   0.928E-02    0.768E-03
DAV:   2    -0.155270624432E+04   -0.10244E-05   -0.29021E-05  7992   0.794E-03    0.594E-03
DAV:   3    -0.155270624457E+04   -0.24607E-06   -0.96991E-06  5945   0.458E-03    0.463E-03
DAV:   4    -0.155270624365E+04    0.91604E-06   -0.61108E-06  5817   0.363E-03    0.101E-03
DAV:   5    -0.155270624389E+04   -0.23787E-06   -0.29335E-06  5817   0.257E-03
  43 F= -.15527062E+04 E0= -.15527275E+04  d E =-.562997E-05
