       N       E                     dE             d eps       ncg     rms          rms(c)
DAV:   1     0.199451248491E+04    0.19945E+04   -0.27968E+05 11284   0.142E+03
DAV:   2    -0.118803669284E+04   -0.31825E+04   -0.30567E+04 13046   0.273E+02
DAV:   3    -0.158854585995E+04   -0.40051E+03   -0.36493E+03 17632   0.822E+01
DAV:   4    -0.161347846416E+04   -0.24933E+02   -0.22639E+02 16000   0.164E+01
DAV:   5    -0.161459743721E+04   -0.11190E+01   -0.10947E+01 17000   0.437E+00    0.386E+01
DAV:   6    -0.157749705695E+04    0.37100E+02   -0.11701E+02 17400   0.146E+01    0.227E+01
DAV:   7    -0.156774383874E+04    0.97532E+01   -0.93123E+01 17200   0.149E+01    0.178E+01
DAV:   8    -0.155790682842E+04    0.98370E+01   -0.62488E+01 16792   0.118E+01    0.115E+01
DAV:   9    -0.155076788344E+04    0.71389E+01   -0.29846E+01 16424   0.842E+00    0.338E+00
DAV:  10    -0.155057867800E+04    0.18921E+00   -0.58935E+00 16152   0.334E+00    0.144E+00
DAV:  11    -0.155058122138E+04   -0.25434E-02   -0.70039E-01 15016   0.118E+00    0.968E-01
DAV:  12    -0.155057311430E+04    0.81071E-02   -0.17819E-01 15592   0.652E-01    0.685E-01
DAV:  13    -0.155055611156E+04    0.17003E-01   -0.69273E-02 15624   0.457E-01    0.408E-01
DAV:  14    -0.155055014004E+04    0.59715E-02   -0.23535E-02 15608   0.214E-01    0.201E-01
DAV:  15    -0.155054903922E+04    0.11008E-02   -0.74280E-03 15648   0.122E-01    0.964E-02
DAV:  16    -0.155054890624E+04    0.13299E-03   -0.18194E-03 15320   0.659E-02    0.628E-02
DAV:  17    -0.155054881755E+04    0.88691E-04   -0.78337E-04 15440   0.425E-02    0.333E-02
DAV:  18    -0.155054881168E+04    0.58660E-05   -0.28389E-04 13872   0.248E-02    0.151E-02
DAV:  19    -0.155054880976E+04    0.19220E-05   -0.73606E-05 12224   0.142E-02
   1 F= -.15505488E+04 E0= -.15505479E+04  d E =-.155055E+04
       N       E                     dE             d eps       ncg     rms          rms(c)
DAV:   1    -0.155625241607E+04   -0.57036E+01   -0.24367E+03 11284   0.758E+01    0.271E+01
DAV:   2    -0.153037432473E+04    0.25878E+02   -0.17358E+02 18664   0.181E+01    0.180E+01
DAV:   3    -0.152142659395E+04    0.89477E+01   -0.99986E+01 19056   0.135E+01    0.136E+01
DAV:   4    -0.151567539496E+04    0.57512E+01   -0.38019E+01 20120   0.819E+00    0.974E+00
DAV:   5    -0.151152631695E+04    0.41491E+01   -0.24149E+01 18256   0.609E+00    0.399E+00
DAV:   6    -0.151109762180E+04    0.42870E+00   -0.65621E+00 18336   0.335E+00    0.265E+00
DAV:   7    -0.151092687480E+04    0.17075E+00   -0.12994E+00 17560   0.160E+00    0.178E+00
DAV:   8    -0.151087380187E+04    0.53073E-01   -0.40863E-01 17880   0.699E-01    0.916E-01
DAV:   9    -0.151087322616E+04    0.57572E-03   -0.21353E-01 17968   0.467E-01    0.445E-01
DAV:  10    -0.151087854600E+04   -0.53198E-02   -0.58632E-02 18064   0.331E-01    0.452E-01
DAV:  11    -0.151087043926E+04    0.81067E-02   -0.28661E-02 18224   0.233E-01    0.193E-01
DAV:  12    -0.151086989946E+04    0.53979E-03   -0.12301E-02 18216   0.124E-01    0.947E-02
DAV:  13    -0.151087039241E+04   -0.49294E-03   -0.24125E-03 17576   0.670E-02    0.788E-02
DAV:  14    -0.151087050658E+04   -0.11417E-03   -0.14688E-03 17592   0.502E-02    0.369E-02
DAV:  15    -0.151087056429E+04   -0.57709E-04   -0.53771E-04 17208   0.266E-02    0.270E-02
DAV:  16    -0.151087055079E+04    0.13501E-04   -0.12707E-04 14320   0.147E-02    0.128E-02
DAV:  17    -0.151087055597E+04   -0.51815E-05   -0.50593E-05  9224   0.910E-03
   2 F= -.15108706E+04 E0= -.15108769E+04  d E =0.396783E+02
       N       E                     dE             d eps       ncg     rms          rms(c)
DAV:   1    -0.158096824441E+04   -0.70098E+02   -0.12043E+03 11284   0.591E+01    0.187E+01
DAV:   2    -0.156695319864E+04    0.14015E+02   -0.47296E+01 17117   0.110E+01    0.980E+00
DAV:   3    -0.156422327551E+04    0.27299E+01   -0.28981E+01 17584   0.787E+00    0.774E+00
DAV:   4    -0.156190080100E+04    0.23225E+01   -0.12827E+01 17512   0.548E+00    0.514E+00
DAV:   5    -0.156052864399E+04    0.13722E+01   -0.70765E+00 16560   0.398E+00    0.179E+00
DAV:   6    -0.156043160403E+04    0.97040E-01   -0.16752E+00 15320   0.183E+00    0.856E-01
DAV:   7    -0.156044399031E+04   -0.12386E-01   -0.22878E-01 14624   0.691E-01    0.628E-01
DAV:   8    -0.156044650568E+04   -0.25154E-02   -0.45658E-02 16016   0.307E-01    0.391E-01
DAV:   9    -0.156045598147E+04   -0.94758E-02   -0.48255E-02 16408   0.263E-01    0.223E-01
DAV:  10    -0.156045699910E+04   -0.10176E-02   -0.10233E-02 14328   0.166E-01    0.140E-01
DAV:  11    -0.156045680166E+04    0.19744E-03   -0.38853E-03 16440   0.836E-02    0.689E-02
DAV:  12    -0.156045697572E+04   -0.17406E-03   -0.13924E-03 16688   0.517E-02    0.462E-02
DAV:  13    -0.156045724594E+04   -0.27022E-03   -0.69681E-04 15368   0.372E-02    0.357E-02
DAV:  14    -0.156045727857E+04   -0.32630E-04   -0.21035E-04 14392   0.200E-02    0.156E-02
DAV:  15    -0.156045727277E+04    0.57963E-05   -0.35670E-05  7672   0.899E-03
   3 F= -.15604573E+04 E0= -.15604767E+04  d E =-.495867E+02
       N       E                     dE             d eps       ncg     rms          rms(c)
DAV:   1    -0.156077929026E+04   -0.32201E+00   -0.20954E+01 11284   0.643E+00    0.110E+00
DAV:   2    -0.156075729326E+04    0.21997E-01   -0.33554E-01 16264   0.722E-01    0.672E-01
DAV:   3    -0.156075072433E+04    0.65689E-02   -0.10404E-01 18464   0.495E-01    0.561E-01
DAV:   4    -0.156073608070E+04    0.14644E-01   -0.48886E-02 16736   0.336E-01    0.286E-01
DAV:   5    -0.156073303741E+04    0.30433E-02   -0.23514E-02 15440   0.227E-01    0.115E-01
DAV:   6    -0.156073281123E+04    0.22619E-03   -0.53694E-03 15320   0.116E-01    0.742E-02
DAV:   7    -0.156073274860E+04    0.62624E-04   -0.12365E-03 15616   0.595E-02    0.534E-02
DAV:   8    -0.156073270533E+04    0.43273E-04   -0.44463E-04 15976   0.305E-02    0.295E-02
DAV:   9    -0.156073273204E+04   -0.26710E-04   -0.20238E-04 15360   0.192E-02    0.187E-02
DAV:  10    -0.156073273470E+04   -0.26635E-05   -0.58538E-05 11360   0.143E-02
   4 F= -.15607327E+04 E0= -.15607517E+04  d E =-.275462E+00
       N       E                     dE             d eps       ncg     rms          rms(c)
DAV:   1    -0.156077804911E+04   -0.45317E-01   -0.35661E+00 11284   0.253E+00    0.400E-01
DAV:   2    -0.156078391963E+04   -0.58705E-02   -0.94095E-02 18024   0.463E-01    0.396E-01
DAV:   3    -0.156077507410E+04    0.88455E-02   -0.37898E-02 18080   0.307E-01    0.200E-01
DAV:   4    -0.156077372806E+04    0.13460E-02   -0.72354E-03 16520   0.120E-01    0.134E-01
DAV:   5    -0.156077309016E+04    0.63790E-03   -0.32165E-03 15232   0.845E-02    0.711E-02
DAV:   6    -0.156077291745E+04    0.17271E-03   -0.13116E-03 15288   0.579E-02    0.389E-02
DAV:   7    -0.156077285565E+04    0.61800E-04   -0.37738E-04 15464   0.334E-02    0.228E-02
DAV:   8    -0.156077285232E+04    0.33310E-05   -0.92020E-05 13016   0.141E-02
   5 F= -.15607729E+04 E0= -.15607912E+04  d E =-.401176E-01
       N       E                     dE             d eps       ncg     rms          rms(c)
DAV:   1    -0.156078858351E+04   -0.15728E-01   -0.17198E+00 11287   0.175E+00    0.212E-01
DAV:   2    -0.156079175260E+04   -0.31691E-02   -0.30284E-02 17504   0.250E-01    0.230E-01
DAV:   3    -0.156078894843E+04    0.28042E-02   -0.10384E-02 18184   0.164E-01    0.117E-01
DAV:   4    -0.156078872307E+04    0.22536E-03   -0.20631E-03 16328   0.632E-02    0.807E-02
DAV:   5    -0.156078856134E+04    0.16173E-03   -0.11688E-03 14832   0.508E-02    0.333E-02
DAV:   6    -0.156078855614E+04    0.52010E-05   -0.38185E-04 16144   0.330E-02    0.214E-02
DAV:   7    -0.156078853799E+04    0.18143E-04   -0.12358E-04 14552   0.184E-02    0.111E-02
DAV:   8    -0.156078853274E+04    0.52550E-05   -0.22197E-05  7088   0.798E-03
   6 F= -.15607885E+04 E0= -.15608067E+04  d E =-.156804E-01
       N       E                     dE             d eps       ncg     rms          rms(c)
DAV:   1    -0.156079598401E+04   -0.74460E-02   -0.40878E-01 11341   0.890E-01    0.182E-01
DAV:   2    -0.156079613759E+04   -0.15358E-03   -0.12945E-02 18120   0.182E-01    0.163E-01
DAV:   3    -0.156079466322E+04    0.14744E-02   -0.65113E-03 18152   0.127E-01    0.868E-02
DAV:   4    -0.156079433891E+04    0.32431E-03   -0.14512E-03 16232   0.536E-02    0.557E-02
DAV:   5    -0.156079416491E+04    0.17401E-03   -0.67119E-04 15256   0.401E-02    0.276E-02
DAV:   6    -0.156079411652E+04    0.48389E-04   -0.23744E-04 15328   0.252E-02    0.154E-02
DAV:   7    -0.156079410475E+04    0.11771E-04   -0.59126E-05 12144   0.137E-02    0.925E-03
DAV:   8    -0.156079410588E+04   -0.11346E-05   -0.14129E-05  6472   0.639E-03
   7 F= -.15607941E+04 E0= -.15608120E+04  d E =-.557314E-02
       N       E                     dE             d eps       ncg     rms          rms(c)
DAV:   1    -0.156079863296E+04   -0.45282E-02   -0.35745E-01 11332   0.802E-01    0.102E-01
DAV:   2    -0.156079931247E+04   -0.67952E-03   -0.60292E-03 17456   0.115E-01    0.111E-01
DAV:   3    -0.156079864548E+04    0.66700E-03   -0.23352E-03 18120   0.783E-02    0.554E-02
DAV:   4    -0.156079860986E+04    0.35617E-04   -0.48439E-04 16072   0.305E-02    0.358E-02
DAV:   5    -0.156079859226E+04    0.17602E-04   -0.26166E-04 15136   0.246E-02    0.150E-02
DAV:   6    -0.156079859319E+04   -0.93393E-06   -0.76363E-05 13264   0.157E-02
   8 F= -.15607986E+04 E0= -.15608164E+04  d E =-.448731E-02
       N       E                     dE             d eps       ncg     rms          rms(c)
DAV:   1    -0.156080099652E+04   -0.24043E-02   -0.21350E-01 11323   0.614E-01    0.862E-02
DAV:   2    -0.156080153822E+04   -0.54170E-03   -0.49764E-03 18160   0.113E-01    0.104E-01
DAV:   3    -0.156080085637E+04    0.68185E-03   -0.22703E-03 18128   0.762E-02    0.441E-02
DAV:   4    -0.156080079587E+04    0.60506E-04   -0.33999E-04 16120   0.253E-02    0.309E-02
DAV:   5    -0.156080075279E+04    0.43078E-04   -0.16013E-04 14928   0.194E-02    0.165E-02
DAV:   6    -0.156080073676E+04    0.16023E-04   -0.64560E-05 12640   0.144E-02    0.915E-03
DAV:   7    -0.156080073178E+04    0.49861E-05   -0.18427E-05  6936   0.825E-03
   9 F= -.15608007E+04 E0= -.15608184E+04  d E =-.213859E-02
       N       E                     dE             d eps       ncg     rms          rms(c)
DAV:   1    -0.156080175154E+04   -0.10148E-02   -0.83495E-02 11344   0.390E-01    0.535E-02
DAV:   2    -0.156080189723E+04   -0.14570E-03   -0.13040E-03 17272   0.539E-02    0.536E-02
DAV:   3    -0.156080175372E+04    0.14352E-03   -0.53701E-04 18008   0.377E-02    0.282E-02
DAV:   4    -0.156080175293E+04    0.79257E-06   -0.11697E-04 13856   0.153E-02    0.154E-02
DAV:   5    -0.156080175841E+04   -0.54792E-05   -0.47479E-05 10144   0.122E-02
  10 F= -.15608018E+04 E0= -.15608194E+04  d E =-.102663E-02
       N       E                     dE             d eps       ncg     rms          rms(c)
DAV:   1    -0.156080254979E+04   -0.79687E-03   -0.46403E-02 11344   0.291E-01    0.472E-02
DAV:   2    -0.156080261254E+04   -0.62743E-04   -0.10874E-03 18176   0.531E-02    0.498E-02
DAV:   3    -0.156080246030E+04    0.15223E-03   -0.52488E-04 18136   0.367E-02    0.233E-02
DAV:   4    -0.156080243347E+04    0.26829E-04   -0.90185E-05 13568   0.134E-02    0.153E-02
DAV:   5    -0.156080241349E+04    0.19983E-04   -0.37720E-05  8776   0.108E-02    0.779E-03
DAV:   6    -0.156080240620E+04    0.72854E-05   -0.12800E-05  6728   0.780E-03
  11 F= -.15608024E+04 E0= -.15608200E+04  d E =-.647799E-03
       N       E                     dE             d eps       ncg     rms          rms(c)
DAV:   1    -0.156080289225E+04   -0.47876E-03   -0.47368E-02 11338   0.288E-01    0.313E-02
DAV:   2    -0.156080300806E+04   -0.11581E-03   -0.72604E-04 17672   0.410E-02    0.401E-02
DAV:   3    -0.156080291524E+04    0.92815E-04   -0.28601E-04 17693   0.276E-02    0.181E-02
DAV:   4    -0.156080291677E+04   -0.15238E-05   -0.40282E-05  9232   0.971E-03    0.111E-02
DAV:   5    -0.156080291999E+04   -0.32247E-05   -0.17743E-05  6928   0.822E-03
  12 F= -.15608029E+04 E0= -.15608205E+04  d E =-.513786E-03
       N       E                     dE             d eps       ncg     rms          rms(c)
DAV:   1    -0.156080322750E+04   -0.31073E-03   -0.23677E-02 11344   0.206E-01    0.294E-02
DAV:   2    -0.156080325315E+04   -0.25651E-04   -0.47413E-04 17992   0.341E-02    0.317E-02
DAV:   3    -0.156080319096E+04    0.62182E-04   -0.20556E-04 16912   0.234E-02    0.149E-02
DAV:   4    -0.156080317825E+04    0.12720E-04   -0.29858E-05  7976   0.885E-03    0.955E-03
DAV:   5    -0.156080316843E+04    0.98135E-05   -0.15481E-05  6448   0.707E-03
  13 F= -.15608032E+04 E0= -.15608207E+04  d E =-.248441E-03
       N       E                     dE             d eps       ncg     rms          rms(c)
DAV:   1    -0.156080333486E+04   -0.15661E-03   -0.11321E-02 11350   0.143E-01    0.188E-02
DAV:   2    -0.156080335663E+04   -0.21775E-04   -0.14091E-04 15568   0.173E-02    0.168E-02
DAV:   3    -0.156080334560E+04    0.11029E-04   -0.38078E-05  9360   0.118E-02    0.101E-02
DAV:   4    -0.156080335298E+04   -0.73787E-05   -0.17235E-05  6440   0.660E-03    0.446E-03
DAV:   5    -0.156080335641E+04   -0.34294E-05   -0.64401E-06  6312   0.524E-03
  14 F= -.15608034E+04 E0= -.15608209E+04  d E =-.187979E-03
       N       E                     dE             d eps       ncg     rms          rms(c)
DAV:   1    -0.156080352505E+04   -0.17207E-03   -0.13807E-02 11344   0.155E-01    0.184E-02
DAV:   2    -0.156080354733E+04   -0.22288E-04   -0.22525E-04 17928   0.239E-02    0.230E-02
DAV:   3    -0.156080351375E+04    0.33580E-04   -0.95456E-05 13824   0.164E-02    0.100E-02
DAV:   4    -0.156080350883E+04    0.49247E-05   -0.14295E-05  6600   0.656E-03    0.664E-03
DAV:   5    -0.156080350387E+04    0.49608E-05   -0.75163E-06  6248   0.535E-03
  15 F= -.15608035E+04 E0= -.15608210E+04  d E =-.147459E-03
       N       E                     dE             d eps       ncg     rms          rms(c)
DAV:   1    -0.156080360408E+04   -0.95246E-04   -0.97127E-03 11350   0.131E-01    0.138E-02
DAV:   2    -0.156080362159E+04   -0.17514E-04   -0.10390E-04 14624   0.149E-02    0.137E-02
DAV:   3    -0.156080361344E+04    0.81520E-05   -0.24906E-05  8056   0.988E-03    0.809E-03
DAV:   4    -0.156080361857E+04   -0.51312E-05   -0.13505E-05  6272   0.543E-03    0.352E-03
DAV:   5    -0.156080362068E+04   -0.21120E-05   -0.53149E-06  6176   0.469E-03
  16 F= -.15608036E+04 E0= -.15608211E+04  d E =-.116812E-03
       N       E                     dE             d eps       ncg     rms          rms(c)
DAV:   1    -0.156080369540E+04   -0.76832E-04   -0.41094E-03 11350   0.859E-02    0.124E-02
DAV:   2    -0.156080369156E+04    0.38369E-05   -0.58720E-05 11360   0.135E-02    0.120E-02
DAV:   3    -0.156080368166E+04    0.99025E-05   -0.24618E-05  8136   0.986E-03    0.596E-03
DAV:   4    -0.156080367752E+04    0.41431E-05   -0.77919E-06  6080   0.439E-03    0.371E-03
DAV:   5    -0.156080367384E+04    0.36817E-05   -0.39475E-06  6080   0.373E-03
  17 F= -.15608037E+04 E0= -.15608212E+04  d E =-.531562E-04
       N       E                     dE             d eps       ncg     rms          rms(c)
DAV:   1    -0.156080373045E+04   -0.52929E-04   -0.47483E-03 11344   0.910E-02    0.967E-03
DAV:   2    -0.156080373908E+04   -0.86275E-05   -0.40313E-05  9424   0.104E-02    0.927E-03
DAV:   3    -0.156080373627E+04    0.28110E-05   -0.13740E-05  6997   0.737E-03    0.559E-03
DAV:   4    -0.156080374005E+04   -0.37869E-05   -0.75398E-06  6080   0.402E-03    0.224E-03
DAV:   5    -0.156080374125E+04   -0.11940E-05   -0.32454E-06  6072   0.344E-03
  18 F= -.15608037E+04 E0= -.15608212E+04  d E =-.674086E-04
       N       E                     dE             d eps       ncg     rms          rms(c)
DAV:   1    -0.156080379835E+04   -0.58294E-04   -0.49366E-03 11350   0.925E-02    0.983E-03
DAV:   2    -0.156080379892E+04   -0.57243E-06   -0.52826E-05 10984   0.112E-02    0.967E-03
DAV:   3    -0.156080379386E+04    0.50610E-05   -0.16059E-05  7128   0.776E-03    0.562E-03
DAV:   4    -0.156080379144E+04    0.24190E-05   -0.62825E-06  6056   0.375E-03    0.336E-03
DAV:   5    -0.156080378925E+04    0.21890E-05   -0.32899E-06  6056   0.344E-03
  19 F= -.15608038E+04 E0= -.15608213E+04  d E =-.480038E-04
       N       E                     dE             d eps       ncg     rms          rms(c)
DAV:   1    -0.156080381306E+04   -0.21624E-04   -0.15518E-03 11350   0.525E-02    0.640E-03
DAV:   2    -0.156080381793E+04   -0.48721E-05   -0.11825E-05  6496   0.593E-03    0.509E-03
DAV:   3    -0.156080381806E+04   -0.12664E-06   -0.49594E-06  6240   0.442E-03    0.336E-03
DAV:   4    -0.156080382106E+04   -0.29963E-05   -0.28950E-06  6056   0.273E-03    0.152E-03
DAV:   5    -0.156080382232E+04   -0.12610E-05   -0.15462E-06  6056   0.221E-03
  20 F= -.15608038E+04 E0= -.15608213E+04  d E =-.330690E-04
       N       E                     dE             d eps       ncg     rms          rms(c)
DAV:   1    -0.156080385900E+04   -0.37947E-04   -0.26926E-03 11344   0.683E-02    0.726E-03
DAV:   2    -0.156080385663E+04    0.23745E-05   -0.19098E-05  7664   0.746E-03    0.584E-03
DAV:   3    -0.156080385534E+04    0.12860E-05   -0.76410E-06  6269   0.543E-03    0.406E-03
DAV:   4    -0.156080385340E+04    0.19408E-05   -0.40332E-06  5936   0.327E-03    0.231E-03
DAV:   5    -0.156080385212E+04    0.12851E-05   -0.24023E-06  5936   0.281E-03
  21 F= -.15608039E+04 E0= -.15608213E+04  d E =-.297996E-04
       N       E                     dE             d eps       ncg     rms          rms(c)
DAV:   1    -0.156080387522E+04   -0.21815E-04   -0.21115E-03 11350   0.604E-02    0.609E-03
DAV:   2    -0.156080387889E+04   -0.36706E-05   -0.14625E-05  6304   0.604E-03    0.475E-03
DAV:   3    -0.156080387938E+04   -0.49423E-06   -0.57375E-06  6096   0.421E-03    0.349E-03
DAV:   4    -0.156080388184E+04   -0.24533E-05   -0.36077E-06  5936   0.297E-03    0.124E-03
DAV:   5    -0.156080388263E+04   -0.79307E-06   -0.18982E-06  5936   0.247E-03
  22 F= -.15608039E+04 E0= -.15608214E+04  d E =-.305113E-04
       N       E                     dE             d eps       ncg     rms          rms(c)
DAV:   1    -0.156080390313E+04   -0.21297E-04   -0.10817E-03 11350   0.435E-02    0.520E-03
DAV:   2    -0.156080389998E+04    0.31539E-05   -0.90039E-06  6008   0.499E-03    0.366E-03
DAV:   3    -0.156080389922E+04    0.76302E-06   -0.38393E-06  5864   0.385E-03    0.273E-03
DAV:   4    -0.156080389762E+04    0.15934E-05   -0.20128E-06  5864   0.245E-03    0.158E-03
DAV:   5    -0.156080389647E+04    0.11526E-05   -0.12525E-06  5864   0.199E-03
  23 F= -.15608039E+04 E0= -.15608214E+04  d E =-.138411E-04
       N       E                     dE             d eps       ncg     rms          rms(c)
DAV:   1    -0.156080391274E+04   -0.15116E-04   -0.13048E-03 11344   0.474E-02    0.459E-03
DAV:   2    -0.156080391491E+04   -0.21671E-05   -0.86002E-06  6640   0.455E-03    0.355E-03
DAV:   3    -0.156080391531E+04   -0.40609E-06   -0.33360E-06  6053   0.308E-03    0.269E-03
DAV:   4    -0.156080391694E+04   -0.16298E-05   -0.21800E-06  5816   0.230E-03    0.752E-04
DAV:   5    -0.156080391730E+04   -0.35460E-06   -0.11064E-06  5816   0.187E-03
  24 F= -.15608039E+04 E0= -.15608214E+04  d E =-.208263E-04
       N       E                     dE             d eps       ncg     rms          rms(c)
DAV:   1    -0.156080393802E+04   -0.21078E-04   -0.19288E-03 11344   0.576E-02    0.553E-03
DAV:   2    -0.156080393646E+04    0.15628E-05   -0.12523E-05  6840   0.561E-03    0.417E-03
DAV:   3    -0.156080393607E+04    0.39050E-06   -0.48525E-06  6080   0.382E-03    0.319E-03
DAV:   4    -0.156080393468E+04    0.13917E-05   -0.27551E-06  5768   0.269E-03    0.158E-03
DAV:   5    -0.156080393399E+04    0.68492E-06   -0.16385E-06  5768   0.221E-03
  25 F= -.15608039E+04 E0= -.15608214E+04  d E =-.166933E-04
       N       E                     dE             d eps       ncg     rms          rms(c)
DAV:   1    -0.156080393960E+04   -0.49240E-05   -0.36941E-04 11318   0.257E-02    0.360E-03
DAV:   2    -0.156080394230E+04   -0.26994E-05   -0.37164E-06  5759   0.302E-03    0.231E-03
DAV:   3    -0.156080394309E+04   -0.78681E-06   -0.16286E-06  5756   0.241E-03    0.175E-03
DAV:   4    -0.156080394441E+04   -0.13253E-05   -0.90574E-07  5759   0.167E-03    0.913E-04
DAV:   5    -0.156080394532E+04   -0.91245E-06   -0.55256E-07  5759   0.130E-03
  26 F= -.15608039E+04 E0= -.15608214E+04  d E =-.113330E-04
       N       E                     dE             d eps       ncg     rms          rms(c)
DAV:   1    -0.156080395868E+04   -0.14266E-04   -0.88687E-04 11350   0.390E-02    0.385E-03
DAV:   2    -0.156080395760E+04    0.10740E-05   -0.57829E-06  5783   0.383E-03    0.297E-03
DAV:   3    -0.156080395732E+04    0.28183E-06   -0.22307E-06  5759   0.261E-03    0.225E-03
DAV:   4    -0.156080395636E+04    0.96143E-06   -0.13103E-06  5759   0.179E-03    0.105E-03
DAV:   5    -0.156080395592E+04    0.43797E-06   -0.74924E-07  5759   0.150E-03
  27 F= -.15608040E+04 E0= -.15608214E+04  d E =-.105985E-04
       N       E                     dE             d eps       ncg     rms          rms(c)
DAV:   1    -0.156080396964E+04   -0.13278E-04   -0.19040E-03 11344   0.571E-02    0.507E-03
DAV:   2    -0.156080397140E+04   -0.17650E-05   -0.11177E-05  6952   0.508E-03    0.386E-03
DAV:   3    -0.156080397190E+04   -0.49850E-06   -0.41218E-06  6077   0.313E-03    0.296E-03
DAV:   4    -0.156080397308E+04   -0.11758E-05   -0.27235E-06  5768   0.258E-03    0.678E-04
DAV:   5    -0.156080397324E+04   -0.16033E-06   -0.13201E-06  5768   0.192E-03
  28 F= -.15608040E+04 E0= -.15608214E+04  d E =-.173161E-04
       N       E                     dE             d eps       ncg     rms          rms(c)
DAV:   1    -0.156080398063E+04   -0.75525E-05   -0.22365E-04 11238   0.205E-02    0.371E-03
DAV:   2    -0.156080397706E+04    0.35730E-05   -0.30075E-06  5750   0.290E-03    0.205E-03
DAV:   3    -0.156080397603E+04    0.10266E-05   -0.13734E-06  5747   0.247E-03    0.159E-03
DAV:   4    -0.156080397486E+04    0.11667E-05   -0.66480E-07  5750   0.160E-03    0.902E-04
DAV:   5    -0.156080397389E+04    0.97010E-06   -0.42827E-07  5750   0.117E-03
  29 F= -.15608040E+04 E0= -.15608214E+04  d E =-.655688E-06
       N       E                     dE             d eps       ncg     rms          rms(c)
DAV:   1    -0.156080397943E+04   -0.45711E-05   -0.46435E-04 11350   0.284E-02    0.306E-03
DAV:   2    -0.156080398108E+04   -0.16476E-05   -0.30408E-06  5741   0.266E-03    0.212E-03
DAV:   3    -0.156080398168E+04   -0.60120E-06   -0.12133E-06  5741   0.182E-03    0.159E-03
DAV:   4    -0.156080398264E+04   -0.96121E-06   -0.69915E-07  5741   0.143E-03    0.652E-04
DAV:   5    -0.156080398311E+04   -0.46720E-06   -0.40728E-07  5741   0.108E-03
  30 F= -.15608040E+04 E0= -.15608214E+04  d E =-.921840E-05
       N       E                     dE             d eps       ncg     rms          rms(c)
DAV:   1    -0.156080399255E+04   -0.99065E-05   -0.10598E-03 11332   0.425E-02    0.379E-03
DAV:   2    -0.156080399249E+04    0.61118E-07   -0.61984E-06  5798   0.380E-03    0.288E-03
DAV:   3    -0.156080399249E+04    0.43733E-08   -0.22874E-06  5741   0.234E-03    0.221E-03
DAV:   4    -0.156080399209E+04    0.39153E-06   -0.14715E-06  5750   0.192E-03    0.650E-04
DAV:   5    -0.156080399209E+04    0.25211E-08   -0.75638E-07  5750   0.145E-03
  31 F= -.15608040E+04 E0= -.15608215E+04  d E =-.897976E-05
       N       E                     dE             d eps       ncg     rms          rms(c)
DAV:   1    -0.156080400460E+04   -0.12510E-04   -0.52859E-03 11326   0.953E-02    0.871E-03
DAV:   2    -0.156080400918E+04   -0.45785E-05   -0.34259E-05  9096   0.825E-03    0.640E-03
DAV:   3    -0.156080401078E+04   -0.15952E-05   -0.94715E-06  6149   0.478E-03    0.442E-03
DAV:   4    -0.156080401255E+04   -0.17756E-05   -0.50845E-06  5864   0.395E-03    0.151E-03
DAV:   5    -0.156080401325E+04   -0.69741E-06   -0.26772E-06  5765   0.278E-03
  32 F= -.15608040E+04 E0= -.15608215E+04  d E =-.211595E-04
       N       E                     dE             d eps       ncg     rms          rms(c)
DAV:   1    -0.156080401107E+04    0.14883E-05   -0.11460E-03 11326   0.451E-02    0.530E-03
DAV:   2    -0.156080400681E+04    0.42571E-05   -0.54527E-06  5741   0.392E-03    0.335E-03
DAV:   3    -0.156080400527E+04    0.15364E-05   -0.17423E-06  5732   0.253E-03    0.252E-03
DAV:   4    -0.156080400340E+04    0.18716E-05   -0.87214E-07  5741   0.192E-03    0.122E-03
DAV:   5    -0.156080400227E+04    0.11320E-05   -0.50318E-07  5741   0.122E-03
  33 F= -.15608040E+04 E0= -.15608215E+04  d E =0.109828E-04
       N       E                     dE             d eps       ncg     rms          rms(c)
DAV:   1    -0.156080400960E+04   -0.62000E-05   -0.10020E-03 11326   0.415E-02    0.347E-03
DAV:   2    -0.156080400984E+04   -0.24010E-06   -0.46551E-06  5741   0.342E-03    0.267E-03
DAV:   3    -0.156080400987E+04   -0.26946E-07   -0.14039E-06  5729   0.187E-03    0.209E-03
DAV:   4    -0.156080400985E+04    0.16267E-07   -0.10322E-06  5741   0.158E-03    0.496E-04
DAV:   5    -0.156080400989E+04   -0.40237E-07   -0.41807E-07  5741   0.109E-03
  34 F= -.15608040E+04 E0= -.15608215E+04  d E =-.762297E-05
       N       E                     dE             d eps       ncg     rms          rms(c)
DAV:   1    -0.156080402384E+04   -0.13991E-04   -0.92476E-03 11302   0.126E-01    0.108E-02
DAV:   2    -0.156080402917E+04   -0.53315E-05   -0.75816E-05 13680   0.106E-02    0.855E-03
DAV:   3    -0.156080402879E+04    0.38481E-06   -0.63762E-06  6132   0.461E-03    0.663E-03
DAV:   4    -0.156080402800E+04    0.79102E-06   -0.51992E-06  5840   0.401E-03    0.163E-03
DAV:   5    -0.156080402802E+04   -0.21767E-07   -0.15385E-06  5768   0.258E-03
  35 F= -.15608040E+04 E0= -.15608215E+04  d E =-.181282E-04
       N       E                     dE             d eps       ncg     rms          rms(c)
DAV:   1    -0.156080403348E+04   -0.54777E-05   -0.38457E-03 11326   0.811E-02    0.674E-03
DAV:   2    -0.156080403466E+04   -0.11834E-05   -0.21244E-05  7272   0.701E-03    0.521E-03
DAV:   3    -0.156080403495E+04   -0.28780E-06   -0.74181E-06  5968   0.407E-03    0.401E-03
DAV:   4    -0.156080403472E+04    0.22884E-06   -0.48343E-06  5768   0.340E-03    0.886E-04
DAV:   5    -0.156080403491E+04   -0.19063E-06   -0.23071E-06  5768   0.248E-03
  36 F= -.15608040E+04 E0= -.15608215E+04  d E =-.688897E-05
