       N       E                     dE             d eps       ncg     rms          rms(c)
DAV:   1     0.258179251154E+04    0.25818E+04   -0.30942E+05 12272   0.144E+03
DAV:   2    -0.119519152090E+04   -0.37770E+04   -0.36148E+04 14092   0.333E+02
DAV:   3    -0.168658620378E+04   -0.49139E+03   -0.46476E+03 18680   0.827E+01
DAV:   4    -0.171206567410E+04   -0.25479E+02   -0.24595E+02 17248   0.186E+01
DAV:   5    -0.171312561738E+04   -0.10599E+01   -0.10437E+01 19160   0.390E+00    0.450E+01
DAV:   6    -0.165811389799E+04    0.55012E+02   -0.12504E+02 18288   0.151E+01    0.237E+01
DAV:   7    -0.164417579076E+04    0.13938E+02   -0.83402E+01 18248   0.151E+01    0.150E+01
DAV:   8    -0.163324728131E+04    0.10929E+02   -0.45183E+01 17624   0.123E+01    0.515E+00
DAV:   9    -0.163234871721E+04    0.89856E+00   -0.14083E+01 17368   0.589E+00    0.213E+00
DAV:  10    -0.163236357699E+04   -0.14860E-01   -0.18863E+00 16256   0.197E+00    0.151E+00
DAV:  11    -0.163231826163E+04    0.45315E-01   -0.43132E-01 16216   0.886E-01    0.713E-01
DAV:  12    -0.163230920905E+04    0.90526E-02   -0.84480E-02 16328   0.523E-01    0.456E-01
DAV:  13    -0.163230145483E+04    0.77542E-02   -0.25778E-02 16720   0.294E-01    0.213E-01
DAV:  14    -0.163230029228E+04    0.11625E-02   -0.99983E-03 15760   0.138E-01    0.765E-02
DAV:  15    -0.163230025513E+04    0.37150E-04   -0.21819E-03 16832   0.667E-02    0.314E-02
DAV:  16    -0.163230025862E+04   -0.34844E-05   -0.32041E-04 16824   0.318E-02    0.185E-02
DAV:  17    -0.163230024684E+04    0.11779E-04   -0.85760E-05 14896   0.177E-02    0.107E-02
DAV:  18    -0.163230023999E+04    0.68427E-05   -0.33052E-05  8768   0.983E-03
   1 F= -.16323002E+04 E0= -.16322830E+04  d E =-.163230E+04
       N       E                     dE             d eps       ncg     rms          rms(c)
DAV:   1    -0.163309389758E+04   -0.79365E+00   -0.30624E+02 12264   0.242E+01    0.674E+00
DAV:   2    -0.163112580992E+04    0.19681E+01   -0.80462E+00 16632   0.403E+00    0.328E+00
DAV:   3    -0.163070892653E+04    0.41688E+00   -0.25935E+00 17192   0.258E+00    0.215E+00
DAV:   4    -0.163048307744E+04    0.22585E+00   -0.95151E-01 17336   0.191E+00    0.103E+00
DAV:   5    -0.163043409081E+04    0.48987E-01   -0.46798E-01 15848   0.111E+00    0.380E-01
DAV:   6    -0.163043658162E+04   -0.24908E-02   -0.65723E-02 14960   0.386E-01    0.268E-01
DAV:   7    -0.163043716609E+04   -0.58446E-03   -0.12602E-02 16544   0.159E-01    0.159E-01
DAV:   8    -0.163043808895E+04   -0.92286E-03   -0.58235E-03 15384   0.113E-01    0.912E-02
DAV:   9    -0.163043785557E+04    0.23339E-03   -0.13227E-03 15176   0.613E-02    0.457E-02
DAV:  10    -0.163043777242E+04    0.83144E-04   -0.78645E-04 17152   0.351E-02    0.187E-02
DAV:  11    -0.163043778732E+04   -0.14902E-04   -0.10238E-04 14528   0.156E-02    0.138E-02
DAV:  12    -0.163043778977E+04   -0.24452E-05   -0.18318E-05  8352   0.795E-03
   2 F= -.16304378E+04 E0= -.16304325E+04  d E =0.186245E+01
       N       E                     dE             d eps       ncg     rms          rms(c)
DAV:   1    -0.163490855883E+04   -0.44708E+01   -0.83331E+01 12264   0.146E+01    0.502E+00
DAV:   2    -0.163369774476E+04    0.12108E+01   -0.19035E+00 13120   0.210E+00    0.235E+00
DAV:   3    -0.163343327237E+04    0.26447E+00   -0.78957E-01 14752   0.149E+00    0.105E+00
DAV:   4    -0.163336794248E+04    0.65330E-01   -0.28278E-01 15208   0.117E+00    0.390E-01
DAV:   5    -0.163336274057E+04    0.52019E-02   -0.10669E-01 15144   0.566E-01    0.166E-01
DAV:   6    -0.163336452594E+04   -0.17854E-02   -0.16970E-02 15560   0.193E-01    0.117E-01
DAV:   7    -0.163336523876E+04   -0.71282E-03   -0.26398E-03 16480   0.736E-02    0.656E-02
DAV:   8    -0.163336574901E+04   -0.51025E-03   -0.90342E-04 14760   0.479E-02    0.350E-02
DAV:   9    -0.163336590417E+04   -0.15516E-03   -0.36187E-04 15024   0.268E-02    0.169E-02
DAV:  10    -0.163336596579E+04   -0.61619E-04   -0.15021E-04 15424   0.174E-02    0.113E-02
DAV:  11    -0.163336597684E+04   -0.11047E-04   -0.18883E-05  7960   0.768E-03    0.607E-03
DAV:  12    -0.163336597205E+04    0.47812E-05   -0.54233E-06  7200   0.424E-03
   3 F= -.16333660E+04 E0= -.16333534E+04  d E =-.292818E+01
       N       E                     dE             d eps       ncg     rms          rms(c)
DAV:   1    -0.163342695151E+04   -0.60975E-01   -0.76974E+00 12264   0.356E+00    0.563E-01
DAV:   2    -0.163342588603E+04    0.10655E-02   -0.12883E-01 17408   0.577E-01    0.342E-01
DAV:   3    -0.163342244395E+04    0.34421E-02   -0.28968E-02 18632   0.300E-01    0.250E-01
DAV:   4    -0.163342003816E+04    0.24058E-02   -0.91282E-03 17136   0.168E-01    0.106E-01
DAV:   5    -0.163341964297E+04    0.39519E-03   -0.36271E-03 15760   0.932E-02    0.399E-02
DAV:   6    -0.163341965487E+04   -0.11895E-04   -0.49702E-04 16152   0.339E-02    0.272E-02
DAV:   7    -0.163341965340E+04    0.14687E-05   -0.99618E-05 14600   0.171E-02
   4 F= -.16334197E+04 E0= -.16334076E+04  d E =-.536813E-01
       N       E                     dE             d eps       ncg     rms          rms(c)
DAV:   1    -0.163342456785E+04   -0.49130E-02   -0.80333E-01 12324   0.113E+00    0.134E-01
DAV:   2    -0.163342506991E+04   -0.50206E-03   -0.11670E-02 16760   0.194E-01    0.932E-02
DAV:   3    -0.163342470582E+04    0.36410E-03   -0.26301E-03 18182   0.941E-02    0.673E-02
DAV:   4    -0.163342460028E+04    0.10554E-03   -0.56008E-04 17704   0.382E-02    0.354E-02
DAV:   5    -0.163342457872E+04    0.21562E-04   -0.29633E-04 14792   0.243E-02    0.110E-02
DAV:   6    -0.163342457454E+04    0.41751E-05   -0.25809E-05  8800   0.970E-03
   5 F= -.16334246E+04 E0= -.16334127E+04  d E =-.492114E-02
       N       E                     dE             d eps       ncg     rms          rms(c)
DAV:   1    -0.163342573484E+04   -0.11561E-02   -0.22628E-01 12420   0.604E-01    0.778E-02
DAV:   2    -0.163342583791E+04   -0.10307E-03   -0.29059E-03 16120   0.106E-01    0.532E-02
DAV:   3    -0.163342571980E+04    0.11811E-03   -0.76561E-04 18442   0.524E-02    0.380E-02
DAV:   4    -0.163342569767E+04    0.22127E-04   -0.19581E-04 16248   0.227E-02    0.154E-02
DAV:   5    -0.163342570370E+04   -0.60251E-05   -0.64370E-05 13384   0.123E-02
   6 F= -.16334257E+04 E0= -.16334137E+04  d E =-.112916E-02
       N       E                     dE             d eps       ncg     rms          rms(c)
DAV:   1    -0.163342616214E+04   -0.46447E-03   -0.20364E-02 12496   0.214E-01    0.682E-02
DAV:   2    -0.163342589157E+04    0.27057E-03   -0.45496E-04 15128   0.357E-02    0.334E-02
DAV:   3    -0.163342582375E+04    0.67821E-04   -0.20852E-04 15888   0.267E-02    0.211E-02
DAV:   4    -0.163342576990E+04    0.53851E-04   -0.92444E-05 15520   0.205E-02    0.656E-03
DAV:   5    -0.163342575716E+04    0.12744E-04   -0.26589E-05  7400   0.867E-03    0.262E-03
DAV:   6    -0.163342575761E+04   -0.45160E-06   -0.53611E-06  6864   0.530E-03
   7 F= -.16334258E+04 E0= -.16334140E+04  d E =-.539082E-04
       N       E                     dE             d eps       ncg     rms          rms(c)
DAV:   1    -0.163342611318E+04   -0.35602E-03   -0.24677E-02 12432   0.207E-01    0.386E-02
DAV:   2    -0.163342610401E+04    0.91706E-05   -0.27883E-04 15800   0.307E-02    0.222E-02
DAV:   3    -0.163342610046E+04    0.35476E-05   -0.88670E-05 15280   0.177E-02    0.157E-02
DAV:   4    -0.163342610771E+04   -0.72546E-05   -0.35643E-05  9664   0.116E-02    0.371E-03
DAV:   5    -0.163342611243E+04   -0.47200E-05   -0.10362E-05  6864   0.564E-03
   8 F= -.16334261E+04 E0= -.16334143E+04  d E =-.354826E-03
       N       E                     dE             d eps       ncg     rms          rms(c)
DAV:   1    -0.163342619416E+04   -0.86451E-04   -0.10109E-02 12432   0.127E-01    0.152E-02
DAV:   2    -0.163342619554E+04   -0.13703E-05   -0.11600E-04 15696   0.209E-02    0.112E-02
DAV:   3    -0.163342618844E+04    0.70914E-05   -0.22057E-05  9448   0.102E-02    0.805E-03
DAV:   4    -0.163342618294E+04    0.54994E-05   -0.14780E-05  6992   0.583E-03    0.180E-03
DAV:   5    -0.163342618292E+04    0.20680E-07   -0.39664E-06  6744   0.407E-03
   9 F= -.16334262E+04 E0= -.16334144E+04  d E =-.704896E-04
       N       E                     dE             d eps       ncg     rms          rms(c)
DAV:   1    -0.163342620645E+04   -0.23501E-04   -0.44757E-03 12432   0.860E-02    0.129E-02
DAV:   2    -0.163342621250E+04   -0.60564E-05   -0.36419E-05  9832   0.120E-02    0.801E-03
DAV:   3    -0.163342621422E+04   -0.17161E-05   -0.10871E-05  7608   0.807E-03    0.549E-03
DAV:   4    -0.163342621992E+04   -0.56997E-05   -0.73377E-06  6704   0.497E-03    0.132E-03
DAV:   5    -0.163342622085E+04   -0.92947E-06   -0.27934E-06  6696   0.338E-03
  10 F= -.16334262E+04 E0= -.16334144E+04  d E =-.379233E-04
       N       E                     dE             d eps       ncg     rms          rms(c)
DAV:   1    -0.163342625082E+04   -0.30903E-04   -0.60335E-04 12480   0.353E-02    0.102E-02
DAV:   2    -0.163342623739E+04    0.13435E-04   -0.92102E-06  6672   0.551E-03    0.514E-03
DAV:   3    -0.163342623194E+04    0.54431E-05   -0.44646E-06  6640   0.491E-03    0.289E-03
DAV:   4    -0.163342622770E+04    0.42403E-05   -0.24505E-06  6672   0.375E-03    0.853E-04
DAV:   5    -0.163342622650E+04    0.12016E-05   -0.11367E-06  6648   0.196E-03
  11 F= -.16334262E+04 E0= -.16334144E+04  d E =-.565328E-05
       N       E                     dE             d eps       ncg     rms          rms(c)
DAV:   1    -0.163342624142E+04   -0.13715E-04   -0.18284E-03 12432   0.539E-02    0.601E-03
DAV:   2    -0.163342624358E+04   -0.21658E-05   -0.11756E-05  7040   0.638E-03    0.420E-03
DAV:   3    -0.163342624416E+04   -0.57840E-06   -0.35241E-06  6640   0.402E-03    0.300E-03
DAV:   4    -0.163342624586E+04   -0.16959E-05   -0.25518E-06  6552   0.289E-03    0.495E-04
DAV:   5    -0.163342624588E+04   -0.22603E-07   -0.11435E-06  6552   0.207E-03
  12 F= -.16334262E+04 E0= -.16334144E+04  d E =-.193791E-04
       N       E                     dE             d eps       ncg     rms          rms(c)
DAV:   1    -0.163342626077E+04   -0.14916E-04   -0.18095E-03 12432   0.536E-02    0.605E-03
DAV:   2    -0.163342625856E+04    0.22122E-05   -0.11929E-05  7328   0.613E-03    0.417E-03
DAV:   3    -0.163342625762E+04    0.94014E-06   -0.39951E-06  6600   0.396E-03    0.289E-03
DAV:   4    -0.163342625556E+04    0.20654E-05   -0.26176E-06  6456   0.301E-03    0.559E-04
DAV:   5    -0.163342625570E+04   -0.13999E-06   -0.12943E-06  6456   0.216E-03
  13 F= -.16334263E+04 E0= -.16334144E+04  d E =-.981589E-05
       N       E                     dE             d eps       ncg     rms          rms(c)
DAV:   1    -0.163342625495E+04    0.60337E-06   -0.75648E-05 12088   0.130E-02    0.420E-03
DAV:   2    -0.163342625794E+04   -0.29868E-05   -0.18116E-06  6456   0.210E-03    0.199E-03
DAV:   3    -0.163342626022E+04   -0.22824E-05   -0.87506E-07  6456   0.151E-03    0.846E-04
DAV:   4    -0.163342626132E+04   -0.11019E-05   -0.38105E-07  6456   0.113E-03    0.343E-04
DAV:   5    -0.163342626182E+04   -0.49573E-06   -0.19215E-07  6424   0.737E-04
  14 F= -.16334263E+04 E0= -.16334144E+04  d E =-.612350E-05
       N       E                     dE             d eps       ncg     rms          rms(c)
DAV:   1    -0.163342627094E+04   -0.96158E-05   -0.77667E-04 12432   0.351E-02    0.383E-03
DAV:   2    -0.163342626970E+04    0.12402E-05   -0.45357E-06  6384   0.361E-03    0.267E-03
DAV:   3    -0.163342626902E+04    0.68037E-06   -0.14813E-06  6384   0.216E-03    0.166E-03
DAV:   4    -0.163342626794E+04    0.10786E-05   -0.91390E-07  6384   0.178E-03    0.299E-04
DAV:   5    -0.163342626806E+04   -0.12195E-06   -0.44326E-07  6384   0.124E-03
  15 F= -.16334263E+04 E0= -.16334144E+04  d E =-.624274E-05
       N       E                     dE             d eps       ncg     rms          rms(c)
DAV:   1    -0.163342627426E+04   -0.63221E-05   -0.12148E-03 12432   0.438E-02    0.454E-03
DAV:   2    -0.163342627561E+04   -0.13437E-05   -0.71274E-06  6456   0.441E-03    0.327E-03
DAV:   3    -0.163342627658E+04   -0.97924E-06   -0.27193E-06  6456   0.261E-03    0.969E-04
DAV:   4    -0.163342627710E+04   -0.51556E-06   -0.13022E-06  6384   0.213E-03    0.409E-04
DAV:   5    -0.163342627702E+04    0.80630E-07   -0.72138E-07  6384   0.151E-03
  16 F= -.16334263E+04 E0= -.16334145E+04  d E =-.895806E-05
       N       E                     dE             d eps       ncg     rms          rms(c)
DAV:   1    -0.163342628034E+04   -0.32398E-05   -0.37422E-05 10048   0.987E-03    0.327E-03
DAV:   2    -0.163342627676E+04    0.35844E-05   -0.14055E-06  6416   0.228E-03    0.157E-03
DAV:   3    -0.163342627444E+04    0.23164E-05   -0.41190E-07  6392   0.113E-03    0.651E-04
DAV:   4    -0.163342627361E+04    0.82754E-06   -0.18430E-07  6384   0.102E-03    0.269E-04
DAV:   5    -0.163342627317E+04    0.44642E-06   -0.96961E-08  6384   0.537E-04
  17 F= -.16334263E+04 E0= -.16334145E+04  d E =0.385432E-05
       N       E                     dE             d eps       ncg     rms          rms(c)
DAV:   1    -0.163342627616E+04   -0.25510E-05   -0.42546E-04 12368   0.261E-02    0.303E-03
DAV:   2    -0.163342627761E+04   -0.14499E-05   -0.24619E-06  6384   0.257E-03    0.203E-03
DAV:   3    -0.163342627899E+04   -0.13736E-05   -0.96388E-07  6384   0.141E-03    0.483E-04
DAV:   4    -0.163342627934E+04   -0.35145E-06   -0.39653E-07  6384   0.962E-04    0.231E-04
DAV:   5    -0.163342627934E+04   -0.44015E-08   -0.20587E-07  6384   0.736E-04
  18 F= -.16334263E+04 E0= -.16334145E+04  d E =-.617675E-05
       N       E                     dE             d eps       ncg     rms          rms(c)
DAV:   1    -0.163342628319E+04   -0.38529E-05   -0.51186E-04 12424   0.284E-02    0.290E-03
DAV:   2    -0.163342628290E+04    0.29406E-06   -0.30081E-06  6384   0.286E-03    0.211E-03
DAV:   3    -0.163342628244E+04    0.45662E-06   -0.11756E-06  6384   0.165E-03    0.520E-04
DAV:   4    -0.163342628234E+04    0.10210E-06   -0.54658E-07  6384   0.130E-03    0.277E-04
DAV:   5    -0.163342628242E+04   -0.78858E-07   -0.30420E-07  6384   0.958E-04
  19 F= -.16334263E+04 E0= -.16334145E+04  d E =-.307463E-05
       N       E                     dE             d eps       ncg     rms          rms(c)
DAV:   1    -0.163342628132E+04    0.10189E-05   -0.11230E-04 12184   0.141E-02    0.294E-03
DAV:   2    -0.163342628350E+04   -0.21824E-05   -0.12261E-06  6384   0.179E-03    0.155E-03
DAV:   3    -0.163342628511E+04   -0.16093E-05   -0.56417E-07  6384   0.123E-03    0.638E-04
DAV:   4    -0.163342628587E+04   -0.75492E-06   -0.24895E-07  6384   0.960E-04    0.293E-04
DAV:   5    -0.163342628615E+04   -0.28689E-06   -0.13020E-07  6384   0.650E-04
  20 F= -.16334263E+04 E0= -.16334145E+04  d E =-.373578E-05
       N       E                     dE             d eps       ncg     rms          rms(c)
DAV:   1    -0.163342628972E+04   -0.38499E-05   -0.72240E-05 12024   0.112E-02    0.224E-03
DAV:   2    -0.163342628776E+04    0.19565E-05   -0.78799E-07  6400   0.143E-03    0.120E-03
DAV:   3    -0.163342628654E+04    0.12189E-05   -0.31944E-07  6384   0.940E-04    0.526E-04
DAV:   4    -0.163342628595E+04    0.58623E-06   -0.13905E-07  6384   0.742E-04    0.227E-04
DAV:   5    -0.163342628575E+04    0.20506E-06   -0.71654E-08  6384   0.485E-04
  21 F= -.16334263E+04 E0= -.16334145E+04  d E =0.403691E-06
       N       E                     dE             d eps       ncg     rms          rms(c)
DAV:   1    -0.163342628720E+04   -0.12508E-05   -0.18609E-04 12200   0.171E-02    0.175E-03
DAV:   2    -0.163342628735E+04   -0.14552E-06   -0.11390E-06  6384   0.176E-03    0.127E-03
DAV:   3    -0.163342628748E+04   -0.12832E-06   -0.46974E-07  6384   0.994E-04    0.213E-04
DAV:   4    -0.163342628749E+04   -0.89312E-08   -0.18422E-07  6384   0.658E-04    0.120E-04
DAV:   5    -0.163342628749E+04   -0.58994E-08   -0.10145E-07  6384   0.504E-04
  22 F= -.16334263E+04 E0= -.16334145E+04  d E =-.174457E-05
       N       E                     dE             d eps       ncg     rms          rms(c)
DAV:   1    -0.163342629199E+04   -0.44992E-05   -0.17086E-03 12432   0.520E-02    0.536E-03
DAV:   2    -0.163342629070E+04    0.12823E-05   -0.93128E-06  6536   0.505E-03    0.381E-03
DAV:   3    -0.163342628899E+04    0.17130E-05   -0.33831E-06  6528   0.275E-03    0.970E-04
DAV:   4    -0.163342628866E+04    0.33409E-06   -0.14819E-06  6384   0.210E-03    0.436E-04
DAV:   5    -0.163342628883E+04   -0.17509E-06   -0.79437E-07  6384   0.159E-03
  23 F= -.16334263E+04 E0= -.16334145E+04  d E =-.133895E-05
