       N       E                     dE             d eps       ncg     rms          rms(c)
DAV:   1     0.219365067079E+04    0.21937E+04   -0.29026E+05 11628   0.143E+03
DAV:   2    -0.119387266834E+04   -0.33875E+04   -0.32502E+04 13454   0.296E+02
DAV:   3    -0.162546878870E+04   -0.43160E+03   -0.39842E+03 18024   0.820E+01
DAV:   4    -0.164998118716E+04   -0.24512E+02   -0.22850E+02 16344   0.171E+01
DAV:   5    -0.165103293821E+04   -0.10518E+01   -0.10327E+01 17840   0.417E+00    0.412E+01
DAV:   6    -0.160941361925E+04    0.41619E+02   -0.14476E+02 17840   0.166E+01    0.234E+01
DAV:   7    -0.159670988399E+04    0.12704E+02   -0.10157E+02 18672   0.166E+01    0.178E+01
DAV:   8    -0.158626425684E+04    0.10446E+02   -0.61809E+01 17160   0.122E+01    0.100E+01
DAV:   9    -0.158081890170E+04    0.54454E+01   -0.25061E+01 16656   0.817E+00    0.308E+00
DAV:  10    -0.158077639727E+04    0.42504E-01   -0.52033E+00 16784   0.319E+00    0.174E+00
DAV:  11    -0.158076231875E+04    0.14079E-01   -0.68697E-01 15648   0.126E+00    0.129E+00
DAV:  12    -0.158073151110E+04    0.30808E-01   -0.23386E-01 14536   0.737E-01    0.709E-01
DAV:  13    -0.158071978812E+04    0.11723E-01   -0.76001E-02 14544   0.473E-01    0.388E-01
DAV:  14    -0.158071496822E+04    0.48199E-02   -0.25198E-02 16384   0.271E-01    0.214E-01
DAV:  15    -0.158071317234E+04    0.17959E-02   -0.10153E-02 15216   0.156E-01    0.902E-02
DAV:  16    -0.158071315590E+04    0.16444E-04   -0.33104E-03 16656   0.810E-02    0.489E-02
DAV:  17    -0.158071315173E+04    0.41693E-05   -0.69592E-04 16248   0.438E-02    0.338E-02
DAV:  18    -0.158071310693E+04    0.44798E-04   -0.25914E-04 16432   0.285E-02    0.173E-02
DAV:  19    -0.158071309042E+04    0.16512E-04   -0.77783E-05 12728   0.136E-02    0.757E-03
DAV:  20    -0.158071308818E+04    0.22380E-05   -0.18885E-05  7304   0.711E-03
   1 F= -.15807131E+04 E0= -.15807169E+04  d E =-.158071E+04
       N       E                     dE             d eps       ncg     rms          rms(c)
DAV:   1    -0.158554414355E+04   -0.48311E+01   -0.15465E+03 11620   0.593E+01    0.214E+01
DAV:   2    -0.156824014262E+04    0.17304E+02   -0.98166E+01 18048   0.135E+01    0.126E+01
DAV:   3    -0.156305203543E+04    0.51881E+01   -0.54048E+01 19432   0.106E+01    0.911E+00
DAV:   4    -0.155964731526E+04    0.34047E+01   -0.19021E+01 19488   0.665E+00    0.611E+00
DAV:   5    -0.155796602151E+04    0.16813E+01   -0.11354E+01 17504   0.450E+00    0.245E+00
DAV:   6    -0.155777437202E+04    0.19165E+00   -0.26511E+00 17272   0.232E+00    0.141E+00
DAV:   7    -0.155773757464E+04    0.36797E-01   -0.48856E-01 15760   0.107E+00    0.977E-01
DAV:   8    -0.155772769056E+04    0.98841E-02   -0.15023E-01 17352   0.455E-01    0.524E-01
DAV:   9    -0.155773397533E+04   -0.62848E-02   -0.81398E-02 17928   0.317E-01    0.320E-01
DAV:  10    -0.155773483260E+04   -0.85727E-03   -0.24349E-02 16872   0.246E-01    0.260E-01
DAV:  11    -0.155773238761E+04    0.24450E-02   -0.11002E-02 18200   0.145E-01    0.114E-01
DAV:  12    -0.155773224291E+04    0.14470E-03   -0.38811E-03 18184   0.736E-02    0.601E-02
DAV:  13    -0.155773239227E+04   -0.14936E-03   -0.11445E-03 17560   0.462E-02    0.455E-02
DAV:  14    -0.155773247753E+04   -0.85265E-04   -0.53336E-04 16592   0.319E-02    0.207E-02
DAV:  15    -0.155773248528E+04   -0.77491E-05   -0.14369E-04 14544   0.159E-02    0.117E-02
DAV:  16    -0.155773248741E+04   -0.21243E-05   -0.27804E-05  7608   0.858E-03
   2 F= -.15577325E+04 E0= -.15577373E+04  d E =0.229806E+02
       N       E                     dE             d eps       ncg     rms          rms(c)
DAV:   1    -0.159967082197E+04   -0.41938E+02   -0.71924E+02 11620   0.447E+01    0.150E+01
DAV:   2    -0.159012459137E+04    0.95462E+01   -0.27934E+01 16912   0.842E+00    0.730E+00
DAV:   3    -0.158864023619E+04    0.14844E+01   -0.15540E+01 17632   0.614E+00    0.588E+00
DAV:   4    -0.158702848110E+04    0.16118E+01   -0.69974E+00 17720   0.455E+00    0.324E+00
DAV:   5    -0.158651156742E+04    0.51691E+00   -0.34856E+00 16528   0.291E+00    0.116E+00
DAV:   6    -0.158648365036E+04    0.27917E-01   -0.74634E-01 15648   0.136E+00    0.726E-01
DAV:   7    -0.158648161564E+04    0.20347E-02   -0.13034E-01 15328   0.555E-01    0.528E-01
DAV:   8    -0.158648455406E+04   -0.29384E-02   -0.37374E-02 15504   0.252E-01    0.273E-01
DAV:   9    -0.158649316307E+04   -0.86090E-02   -0.28409E-02 16496   0.204E-01    0.201E-01
DAV:  10    -0.158649295199E+04    0.21108E-03   -0.59198E-03 16112   0.141E-01    0.141E-01
DAV:  11    -0.158649235491E+04    0.59708E-03   -0.39371E-03 17080   0.852E-02    0.502E-02
DAV:  12    -0.158649264346E+04   -0.28855E-03   -0.16220E-03 17128   0.518E-02    0.508E-02
DAV:  13    -0.158649277283E+04   -0.12937E-03   -0.29796E-04 15168   0.274E-02    0.350E-02
DAV:  14    -0.158649276562E+04    0.72155E-05   -0.17716E-04 16456   0.174E-02    0.124E-02
DAV:  15    -0.158649275913E+04    0.64913E-05   -0.35737E-05  7880   0.877E-03
   3 F= -.15864928E+04 E0= -.15864787E+04  d E =-.287603E+02
       N       E                     dE             d eps       ncg     rms          rms(c)
DAV:   1    -0.158661823714E+04   -0.12547E+00   -0.14467E+01 11620   0.500E+00    0.672E-01
DAV:   2    -0.158662993790E+04   -0.11701E-01   -0.26607E-01 17056   0.730E-01    0.538E-01
DAV:   3    -0.158661773788E+04    0.12200E-01   -0.74919E-02 18344   0.461E-01    0.346E-01
DAV:   4    -0.158661466452E+04    0.30734E-02   -0.17158E-02 17656   0.205E-01    0.225E-01
DAV:   5    -0.158661334291E+04    0.13216E-02   -0.97725E-03 15312   0.148E-01    0.956E-02
DAV:   6    -0.158661319030E+04    0.15261E-03   -0.30642E-03 16216   0.950E-02    0.587E-02
DAV:   7    -0.158661308297E+04    0.10732E-03   -0.88193E-04 16288   0.484E-02    0.356E-02
DAV:   8    -0.158661305322E+04    0.29752E-04   -0.23793E-04 16160   0.216E-02    0.210E-02
DAV:   9    -0.158661304906E+04    0.41630E-05   -0.79874E-05 13856   0.147E-02
   4 F= -.15866130E+04 E0= -.15865998E+04  d E =-.120290E+00
       N       E                     dE             d eps       ncg     rms          rms(c)
DAV:   1    -0.158663957380E+04   -0.26521E-01   -0.30552E+00 11620   0.229E+00    0.349E-01
DAV:   2    -0.158664533740E+04   -0.57636E-02   -0.77249E-02 18064   0.457E-01    0.359E-01
DAV:   3    -0.158663698976E+04    0.83476E-02   -0.32944E-02 18568   0.308E-01    0.166E-01
DAV:   4    -0.158663620221E+04    0.78755E-03   -0.46200E-03 16928   0.105E-01    0.114E-01
DAV:   5    -0.158663578373E+04    0.41849E-03   -0.23829E-03 15672   0.760E-02    0.580E-02
DAV:   6    -0.158663568989E+04    0.93835E-04   -0.98453E-04 16136   0.534E-02    0.369E-02
DAV:   7    -0.158663563143E+04    0.58463E-04   -0.31069E-04 15728   0.282E-02    0.188E-02
DAV:   8    -0.158663563402E+04   -0.25956E-05   -0.66597E-05 12440   0.118E-02
   5 F= -.15866356E+04 E0= -.15866220E+04  d E =-.225850E-01
       N       E                     dE             d eps       ncg     rms          rms(c)
DAV:   1    -0.158664384446E+04   -0.82130E-02   -0.50755E-01 11746   0.101E+00    0.225E-01
DAV:   2    -0.158664235008E+04    0.14944E-02   -0.88284E-03 16496   0.136E-01    0.125E-01
DAV:   3    -0.158664210686E+04    0.24323E-03   -0.39954E-03 18872   0.106E-01    0.102E-01
DAV:   4    -0.158664164168E+04    0.46518E-03   -0.17222E-03 17192   0.677E-02    0.468E-02
DAV:   5    -0.158664162598E+04    0.15704E-04   -0.76139E-04 15280   0.418E-02    0.187E-02
DAV:   6    -0.158664162567E+04    0.30460E-06   -0.12370E-04 14160   0.187E-02    0.137E-02
DAV:   7    -0.158664162141E+04    0.42611E-05   -0.24085E-05  7736   0.910E-03
   6 F= -.15866416E+04 E0= -.15866284E+04  d E =-.598739E-02
       N       E                     dE             d eps       ncg     rms          rms(c)
DAV:   1    -0.158664920961E+04   -0.75839E-02   -0.46286E-01 11690   0.912E-01    0.170E-01
DAV:   2    -0.158664975480E+04   -0.54519E-03   -0.13261E-02 18232   0.196E-01    0.160E-01
DAV:   3    -0.158664811230E+04    0.16425E-02   -0.65194E-03 18680   0.137E-01    0.762E-02
DAV:   4    -0.158664789081E+04    0.22150E-03   -0.10460E-03 16440   0.494E-02    0.490E-02
DAV:   5    -0.158664776957E+04    0.12124E-03   -0.51575E-04 15544   0.365E-02    0.240E-02
DAV:   6    -0.158664773999E+04    0.29576E-04   -0.18722E-04 15816   0.237E-02    0.150E-02
DAV:   7    -0.158664772912E+04    0.10873E-04   -0.49708E-05 11088   0.121E-02    0.844E-03
DAV:   8    -0.158664773183E+04   -0.27097E-05   -0.13189E-05  6840   0.652E-03
   7 F= -.15866477E+04 E0= -.15866343E+04  d E =-.611042E-02
       N       E                     dE             d eps       ncg     rms          rms(c)
DAV:   1    -0.158665034209E+04   -0.26130E-02   -0.29659E-01 11662   0.708E-01    0.838E-02
DAV:   2    -0.158665096948E+04   -0.62739E-03   -0.50366E-03 17464   0.120E-01    0.976E-02
DAV:   3    -0.158665036589E+04    0.60359E-03   -0.20260E-03 17828   0.787E-02    0.453E-02
DAV:   4    -0.158665034554E+04    0.20347E-04   -0.31095E-04 16968   0.258E-02    0.295E-02
DAV:   5    -0.158665033469E+04    0.10850E-04   -0.16828E-04 15264   0.208E-02    0.124E-02
DAV:   6    -0.158665033198E+04    0.27145E-05   -0.51620E-05 10888   0.132E-02
   8 F= -.15866503E+04 E0= -.15866369E+04  d E =-.260014E-02
       N       E                     dE             d eps       ncg     rms          rms(c)
DAV:   1    -0.158665153664E+04   -0.12019E-02   -0.98896E-02 11781   0.422E-01    0.762E-02
DAV:   2    -0.158665156537E+04   -0.28729E-04   -0.23486E-03 18112   0.823E-02    0.679E-02
DAV:   3    -0.158665128060E+04    0.28476E-03   -0.11585E-03 18720   0.584E-02    0.348E-02
DAV:   4    -0.158665122148E+04    0.59127E-04   -0.20902E-04 16264   0.219E-02    0.216E-02
DAV:   5    -0.158665118663E+04    0.34851E-04   -0.99136E-05 14336   0.167E-02    0.106E-02
DAV:   6    -0.158665117610E+04    0.10528E-04   -0.29506E-05  8360   0.109E-02    0.586E-03
DAV:   7    -0.158665117464E+04    0.14531E-05   -0.94870E-06  6656   0.613E-03
   9 F= -.15866512E+04 E0= -.15866377E+04  d E =-.842669E-03
       N       E                     dE             d eps       ncg     rms          rms(c)
DAV:   1    -0.158665194294E+04   -0.76684E-03   -0.39050E-02 11774   0.269E-01    0.489E-02
DAV:   2    -0.158665193407E+04    0.88661E-05   -0.55588E-04 16704   0.357E-02    0.313E-02
DAV:   3    -0.158665191466E+04    0.19416E-04   -0.22473E-04 17713   0.262E-02    0.232E-02
DAV:   4    -0.158665190890E+04    0.57575E-05   -0.72260E-05 12896   0.137E-02    0.105E-02
DAV:   5    -0.158665191853E+04   -0.96370E-05   -0.25567E-05  7112   0.917E-03
  10 F= -.15866519E+04 E0= -.15866385E+04  d E =-.743890E-03
       N       E                     dE             d eps       ncg     rms          rms(c)
DAV:   1    -0.158665252609E+04   -0.61719E-03   -0.58647E-02 11760   0.315E-01    0.374E-02
DAV:   2    -0.158665260040E+04   -0.74316E-04   -0.87711E-04 17928   0.485E-02    0.394E-02
DAV:   3    -0.158665250953E+04    0.90875E-04   -0.33322E-04 18248   0.320E-02    0.206E-02
DAV:   4    -0.158665249553E+04    0.14004E-04   -0.42970E-05  9760   0.107E-02    0.128E-02
DAV:   5    -0.158665248568E+04    0.98447E-05   -0.22253E-05  7552   0.931E-03
  11 F= -.15866525E+04 E0= -.15866391E+04  d E =-.567146E-03
       N       E                     dE             d eps       ncg     rms          rms(c)
DAV:   1    -0.158665289819E+04   -0.40266E-03   -0.58273E-02 11704   0.314E-01    0.335E-02
DAV:   2    -0.158665295862E+04   -0.60437E-04   -0.61586E-04 17208   0.365E-02    0.296E-02
DAV:   3    -0.158665292735E+04    0.31277E-04   -0.14968E-04 16260   0.224E-02    0.198E-02
DAV:   4    -0.158665292886E+04   -0.15136E-05   -0.42614E-05  9624   0.983E-03    0.670E-03
DAV:   5    -0.158665293176E+04   -0.28949E-05   -0.11090E-05  6848   0.710E-03
  12 F= -.15866529E+04 E0= -.15866395E+04  d E =-.446075E-03
       N       E                     dE             d eps       ncg     rms          rms(c)
DAV:   1    -0.158665307867E+04   -0.14981E-03   -0.40254E-03 11802   0.923E-02    0.242E-02
DAV:   2    -0.158665303809E+04    0.40586E-04   -0.99603E-05 14496   0.158E-02    0.136E-02
DAV:   3    -0.158665302594E+04    0.12146E-04   -0.42396E-05  9864   0.124E-02    0.954E-03
DAV:   4    -0.158665301339E+04    0.12555E-04   -0.12481E-05  7320   0.783E-03    0.497E-03
DAV:   5    -0.158665300552E+04    0.78686E-05   -0.65163E-06  6176   0.487E-03
  13 F= -.15866530E+04 E0= -.15866396E+04  d E =-.737635E-04
       N       E                     dE             d eps       ncg     rms          rms(c)
DAV:   1    -0.158665323740E+04   -0.22401E-03   -0.22485E-02 11760   0.195E-01    0.202E-02
DAV:   2    -0.158665325847E+04   -0.21066E-04   -0.21066E-04 16936   0.204E-02    0.168E-02
DAV:   3    -0.158665325111E+04    0.73564E-05   -0.30025E-05  8873   0.116E-02    0.123E-02
DAV:   4    -0.158665325424E+04   -0.31274E-05   -0.19822E-05  6544   0.712E-03    0.343E-03
DAV:   5    -0.158665325584E+04   -0.16014E-05   -0.58806E-06  6320   0.538E-03
  14 F= -.15866533E+04 E0= -.15866399E+04  d E =-.250322E-03
       N       E                     dE             d eps       ncg     rms          rms(c)
DAV:   1    -0.158665347784E+04   -0.22360E-03   -0.27364E-02 11732   0.214E-01    0.211E-02
DAV:   2    -0.158665349203E+04   -0.14189E-04   -0.26199E-04 17080   0.233E-02    0.185E-02
DAV:   3    -0.158665347948E+04    0.12546E-04   -0.47404E-05 10354   0.137E-02    0.130E-02
DAV:   4    -0.158665347234E+04    0.71370E-05   -0.19093E-05  6776   0.726E-03    0.569E-03
DAV:   5    -0.158665346960E+04    0.27433E-05   -0.78978E-06  6344   0.601E-03
  15 F= -.15866535E+04 E0= -.15866401E+04  d E =-.213759E-03
       N       E                     dE             d eps       ncg     rms          rms(c)
DAV:   1    -0.158665354486E+04   -0.72513E-04   -0.50702E-03 11774   0.950E-02    0.143E-02
DAV:   2    -0.158665355240E+04   -0.75397E-05   -0.50218E-05 11072   0.102E-02    0.842E-03
DAV:   3    -0.158665355541E+04   -0.30103E-05   -0.12988E-05  7106   0.679E-03    0.629E-03
DAV:   4    -0.158665355870E+04   -0.32975E-05   -0.52785E-06  6224   0.493E-03    0.322E-03
DAV:   5    -0.158665356194E+04   -0.32405E-05   -0.28749E-06  6104   0.334E-03
  16 F= -.15866536E+04 E0= -.15866402E+04  d E =-.923440E-04
       N       E                     dE             d eps       ncg     rms          rms(c)
DAV:   1    -0.158665368277E+04   -0.12407E-03   -0.77522E-03 11760   0.115E-01    0.143E-02
DAV:   2    -0.158665367622E+04    0.65492E-05   -0.80096E-05 13888   0.128E-02    0.104E-02
DAV:   3    -0.158665367146E+04    0.47560E-05   -0.16982E-05  7585   0.818E-03    0.760E-03
DAV:   4    -0.158665366615E+04    0.53096E-05   -0.71476E-06  6128   0.504E-03    0.408E-03
DAV:   5    -0.158665366268E+04    0.34757E-05   -0.37931E-06  6104   0.401E-03
  17 F= -.15866537E+04 E0= -.15866403E+04  d E =-.100735E-03
       N       E                     dE             d eps       ncg     rms          rms(c)
DAV:   1    -0.158665377397E+04   -0.10782E-03   -0.11710E-02 11732   0.140E-01    0.133E-02
DAV:   2    -0.158665378300E+04   -0.90228E-05   -0.10130E-04 15424   0.129E-02    0.105E-02
DAV:   3    -0.158665378222E+04    0.77226E-06   -0.86733E-06  6834   0.590E-03    0.827E-03
DAV:   4    -0.158665378318E+04   -0.95595E-06   -0.80656E-06  6152   0.476E-03    0.174E-03
DAV:   5    -0.158665378338E+04   -0.19793E-06   -0.20172E-06  6104   0.326E-03
  18 F= -.15866538E+04 E0= -.15866404E+04  d E =-.120699E-03
       N       E                     dE             d eps       ncg     rms          rms(c)
DAV:   1    -0.158665391261E+04   -0.12943E-03   -0.17612E-02 11732   0.172E-01    0.175E-02
DAV:   2    -0.158665391226E+04    0.34786E-06   -0.16018E-04 16440   0.163E-02    0.130E-02
DAV:   3    -0.158665390746E+04    0.47986E-05   -0.15323E-05  7800   0.801E-03    0.100E-02
DAV:   4    -0.158665390097E+04    0.64861E-05   -0.95551E-06  6384   0.615E-03    0.483E-03
DAV:   5    -0.158665389750E+04    0.34771E-05   -0.50351E-06  6104   0.464E-03
  19 F= -.15866539E+04 E0= -.15866405E+04  d E =-.114119E-03
       N       E                     dE             d eps       ncg     rms          rms(c)
DAV:   1    -0.158665390691E+04   -0.59386E-05   -0.30307E-04 11802   0.277E-02    0.865E-03
DAV:   2    -0.158665391173E+04   -0.48157E-05   -0.68338E-06  6104   0.467E-03    0.437E-03
DAV:   3    -0.158665391404E+04   -0.23143E-05   -0.31873E-06  6104   0.438E-03    0.344E-03
DAV:   4    -0.158665391670E+04   -0.26597E-05   -0.16587E-06  6083   0.300E-03    0.132E-03
DAV:   5    -0.158665391859E+04   -0.18898E-05   -0.86613E-07  6083   0.166E-03
  20 F= -.15866539E+04 E0= -.15866405E+04  d E =-.210952E-04
       N       E                     dE             d eps       ncg     rms          rms(c)
DAV:   1    -0.158665400019E+04   -0.83484E-04   -0.81349E-03 11739   0.116E-01    0.111E-02
DAV:   2    -0.158665400122E+04   -0.10331E-05   -0.61768E-05 12192   0.103E-02    0.841E-03
DAV:   3    -0.158665399973E+04    0.14919E-05   -0.88621E-06  6338   0.530E-03    0.579E-03
DAV:   4    -0.158665399750E+04    0.22291E-05   -0.44595E-06  6120   0.435E-03    0.206E-03
DAV:   5    -0.158665399700E+04    0.49722E-06   -0.19929E-06  6104   0.311E-03
  21 F= -.15866540E+04 E0= -.15866406E+04  d E =-.784095E-04
       N       E                     dE             d eps       ncg     rms          rms(c)
DAV:   1    -0.158665409128E+04   -0.93780E-04   -0.17579E-02 11704   0.171E-01    0.161E-02
DAV:   2    -0.158665410456E+04   -0.13281E-04   -0.15199E-04 16392   0.150E-02    0.121E-02
DAV:   3    -0.158665410474E+04   -0.18360E-06   -0.10147E-05  6970   0.571E-03    0.768E-03
DAV:   4    -0.158665410588E+04   -0.11310E-05   -0.68582E-06  6456   0.565E-03    0.271E-03
DAV:   5    -0.158665410620E+04   -0.32367E-06   -0.24330E-06  6113   0.368E-03
  22 F= -.15866541E+04 E0= -.15866407E+04  d E =-.109197E-03
       N       E                     dE             d eps       ncg     rms          rms(c)
DAV:   1    -0.158665410291E+04    0.29609E-05   -0.56659E-04 11760   0.336E-02    0.771E-03
DAV:   2    -0.158665409381E+04    0.91043E-05   -0.63595E-06  6083   0.454E-03    0.405E-03
DAV:   3    -0.158665409112E+04    0.26910E-05   -0.27985E-06  6076   0.400E-03    0.307E-03
DAV:   4    -0.158665408798E+04    0.31383E-05   -0.12796E-06  6083   0.273E-03    0.134E-03
DAV:   5    -0.158665408628E+04    0.16989E-05   -0.67886E-07  6083   0.155E-03
  23 F= -.15866541E+04 E0= -.15866407E+04  d E =0.199171E-04
       N       E                     dE             d eps       ncg     rms          rms(c)
DAV:   1    -0.158665414465E+04   -0.56673E-04   -0.68398E-03 11732   0.107E-01    0.975E-03
DAV:   2    -0.158665414810E+04   -0.34488E-05   -0.41514E-05  9872   0.919E-03    0.731E-03
DAV:   3    -0.158665414871E+04   -0.60298E-06   -0.91359E-06  6162   0.496E-03    0.473E-03
DAV:   4    -0.158665414937E+04   -0.66621E-06   -0.49077E-06  6104   0.410E-03    0.125E-03
DAV:   5    -0.158665414951E+04   -0.13530E-06   -0.20733E-06  6076   0.267E-03
  24 F= -.15866541E+04 E0= -.15866408E+04  d E =-.632255E-04
       N       E                     dE             d eps       ncg     rms          rms(c)
DAV:   1    -0.158665423912E+04   -0.89744E-04   -0.21436E-02 11662   0.189E-01    0.179E-02
DAV:   2    -0.158665424556E+04   -0.64411E-05   -0.18906E-04 16592   0.168E-02    0.135E-02
DAV:   3    -0.158665424054E+04    0.50136E-05   -0.12195E-05  7085   0.624E-03    0.871E-03
DAV:   4    -0.158665423631E+04    0.42347E-05   -0.85168E-06  6616   0.635E-03    0.351E-03
DAV:   5    -0.158665423496E+04    0.13462E-05   -0.34245E-06  6144   0.456E-03
  25 F= -.15866542E+04 E0= -.15866408E+04  d E =-.854555E-04
       N       E                     dE             d eps       ncg     rms          rms(c)
DAV:   1    -0.158665419204E+04    0.44269E-04   -0.51329E-03 11718   0.934E-02    0.113E-02
DAV:   2    -0.158665419644E+04   -0.44044E-05   -0.28862E-05  7816   0.857E-03    0.723E-03
DAV:   3    -0.158665419886E+04   -0.24203E-05   -0.95693E-06  6062   0.530E-03    0.482E-03
DAV:   4    -0.158665420097E+04   -0.21060E-05   -0.47675E-06  6083   0.425E-03    0.237E-03
DAV:   5    -0.158665420240E+04   -0.14308E-05   -0.26760E-06  6083   0.292E-03
  26 F= -.15866542E+04 E0= -.15866408E+04  d E =0.325614E-04
       N       E                     dE             d eps       ncg     rms          rms(c)
DAV:   1    -0.158665425812E+04   -0.57150E-04   -0.80990E-03 11718   0.116E-01    0.105E-02
DAV:   2    -0.158665425955E+04   -0.14284E-05   -0.48507E-05 10736   0.975E-03    0.796E-03
DAV:   3    -0.158665425861E+04    0.93592E-06   -0.80549E-06  6076   0.495E-03    0.534E-03
DAV:   4    -0.158665425719E+04    0.14183E-05   -0.45797E-06  6083   0.411E-03    0.153E-03
DAV:   5    -0.158665425711E+04    0.85363E-07   -0.17024E-06  6083   0.264E-03
  27 F= -.15866543E+04 E0= -.15866409E+04  d E =-.547077E-04
       N       E                     dE             d eps       ncg     rms          rms(c)
DAV:   1    -0.158665437780E+04   -0.12061E-03   -0.10707E-01 11620   0.422E-01    0.384E-02
DAV:   2    -0.158665443250E+04   -0.54693E-04   -0.88008E-04 17136   0.364E-02    0.296E-02
DAV:   3    -0.158665442141E+04    0.11091E-04   -0.74671E-05 12809   0.135E-02    0.189E-02
DAV:   4    -0.158665441065E+04    0.10755E-04   -0.50533E-05 10624   0.131E-02    0.630E-03
DAV:   5    -0.158665440867E+04    0.19818E-05   -0.12740E-05  7120   0.782E-03
  28 F= -.15866544E+04 E0= -.15866410E+04  d E =-.151560E-03
       N       E                     dE             d eps       ncg     rms          rms(c)
DAV:   1    -0.158665441367E+04   -0.30153E-05   -0.54348E-04 11760   0.366E-02    0.112E-02
DAV:   2    -0.158665439822E+04    0.15445E-04   -0.13193E-05  6176   0.657E-03    0.582E-03
DAV:   3    -0.158665439436E+04    0.38568E-05   -0.63975E-06  6176   0.599E-03    0.454E-03
DAV:   4    -0.158665438946E+04    0.49021E-05   -0.26440E-06  6083   0.374E-03    0.202E-03
DAV:   5    -0.158665438648E+04    0.29814E-05   -0.13263E-06  6083   0.207E-03
  29 F= -.15866544E+04 E0= -.15866410E+04  d E =0.221878E-04
       N       E                     dE             d eps       ncg     rms          rms(c)
DAV:   1    -0.158665440440E+04   -0.14935E-04   -0.16314E-03 11739   0.541E-02    0.888E-03
DAV:   2    -0.158665440876E+04   -0.43623E-05   -0.12826E-05  6091   0.610E-03    0.501E-03
DAV:   3    -0.158665441074E+04   -0.19762E-05   -0.50912E-06  6069   0.476E-03    0.379E-03
DAV:   4    -0.158665441292E+04   -0.21867E-05   -0.22983E-06  6083   0.333E-03    0.181E-03
DAV:   5    -0.158665441472E+04   -0.17960E-05   -0.13328E-06  6083   0.210E-03
  30 F= -.15866544E+04 E0= -.15866410E+04  d E =-.282373E-04
       N       E                     dE             d eps       ncg     rms          rms(c)
DAV:   1    -0.158665442444E+04   -0.11519E-04   -0.10060E-03 11732   0.408E-02    0.411E-03
DAV:   2    -0.158665442488E+04   -0.44081E-06   -0.63712E-06  6020   0.396E-03    0.310E-03
DAV:   3    -0.158665442495E+04   -0.63375E-07   -0.23536E-06  6006   0.256E-03    0.235E-03
DAV:   4    -0.158665442498E+04   -0.35027E-07   -0.15721E-06  6020   0.208E-03    0.721E-04
DAV:   5    -0.158665442503E+04   -0.44488E-07   -0.79798E-07  6020   0.162E-03
  31 F= -.15866544E+04 E0= -.15866410E+04  d E =-.103069E-04
       N       E                     dE             d eps       ncg     rms          rms(c)
DAV:   1    -0.158665445547E+04   -0.30489E-04   -0.23431E-02 11655   0.197E-01    0.180E-02
DAV:   2    -0.158665446662E+04   -0.11149E-04   -0.19925E-04 16632   0.173E-02    0.139E-02
DAV:   3    -0.158665446358E+04    0.30430E-05   -0.11566E-05  7385   0.659E-03    0.979E-03
DAV:   4    -0.158665445988E+04    0.36996E-05   -0.10766E-05  6680   0.655E-03    0.267E-03
DAV:   5    -0.158665445953E+04    0.34441E-06   -0.32299E-06  6152   0.420E-03
  32 F= -.15866545E+04 E0= -.15866411E+04  d E =-.345065E-04
       N       E                     dE             d eps       ncg     rms          rms(c)
DAV:   1    -0.158665445287E+04    0.70023E-05   -0.45878E-04 11732   0.287E-02    0.519E-03
DAV:   2    -0.158665445591E+04   -0.30397E-05   -0.39589E-06  6020   0.373E-03    0.332E-03
DAV:   3    -0.158665445647E+04   -0.55938E-06   -0.14769E-06  6013   0.306E-03    0.241E-03
DAV:   4    -0.158665445816E+04   -0.16882E-05   -0.74468E-07  6020   0.177E-03    0.111E-03
DAV:   5    -0.158665445912E+04   -0.95957E-06   -0.36339E-07  6020   0.120E-03
  33 F= -.15866545E+04 E0= -.15866411E+04  d E =0.411030E-06
       N       E                     dE             d eps       ncg     rms          rms(c)
DAV:   1    -0.158665446881E+04   -0.10648E-04   -0.10197E-03 11732   0.415E-02    0.451E-03
DAV:   2    -0.158665446629E+04    0.25243E-05   -0.55218E-06  6020   0.380E-03    0.294E-03
DAV:   3    -0.158665446521E+04    0.10798E-05   -0.18298E-06  6006   0.224E-03    0.196E-03
DAV:   4    -0.158665446412E+04    0.10830E-05   -0.93071E-07  6020   0.176E-03    0.109E-03
DAV:   5    -0.158665446350E+04    0.61754E-06   -0.53525E-07  6020   0.134E-03
  34 F= -.15866545E+04 E0= -.15866411E+04  d E =-.438370E-05
       N       E                     dE             d eps       ncg     rms          rms(c)
DAV:   1    -0.158665446634E+04   -0.22227E-05   -0.35035E-04 11642   0.241E-02    0.236E-03
DAV:   2    -0.158665446677E+04   -0.42502E-06   -0.23413E-06  6020   0.240E-03    0.179E-03
DAV:   3    -0.158665446688E+04   -0.11054E-06   -0.89890E-07  6020   0.156E-03    0.137E-03
DAV:   4    -0.158665446721E+04   -0.32606E-06   -0.59704E-07  6020   0.123E-03    0.317E-04
DAV:   5    -0.158665446724E+04   -0.30135E-07   -0.29159E-07  6020   0.956E-04
  35 F= -.15866545E+04 E0= -.15866411E+04  d E =-.373197E-05
       N       E                     dE             d eps       ncg     rms          rms(c)
DAV:   1    -0.158665447041E+04   -0.32074E-05   -0.16779E-04 11536   0.169E-02    0.224E-03
DAV:   2    -0.158665446883E+04    0.15813E-05   -0.14546E-06  6020   0.193E-03    0.135E-03
DAV:   3    -0.158665446824E+04    0.59302E-06   -0.59584E-07  6020   0.136E-03    0.924E-04
DAV:   4    -0.158665446765E+04    0.59239E-06   -0.29826E-07  6020   0.101E-03    0.532E-04
DAV:   5    -0.158665446727E+04    0.37811E-06   -0.18520E-07  6020   0.763E-04
  36 F= -.15866545E+04 E0= -.15866411E+04  d E =-.323562E-07
       N       E                     dE             d eps       ncg     rms          rms(c)
DAV:   1    -0.158665446699E+04    0.65796E-06   -0.27774E-05  7006   0.735E-03    0.132E-03
DAV:   2    -0.158665446815E+04   -0.11625E-05   -0.16165E-06  6041   0.233E-03    0.677E-04
DAV:   3    -0.158665446867E+04   -0.51993E-06   -0.33146E-07  6027   0.999E-04    0.593E-04
DAV:   4    -0.158665446910E+04   -0.42974E-06   -0.14477E-07  6020   0.779E-04    0.290E-04
DAV:   5    -0.158665446942E+04   -0.32314E-06   -0.82223E-08  6020   0.451E-04
  37 F= -.15866545E+04 E0= -.15866411E+04  d E =-.215544E-05
       N       E                     dE             d eps       ncg     rms          rms(c)
DAV:   1    -0.158665447136E+04   -0.22562E-05   -0.19216E-04 11508   0.179E-02    0.169E-03
DAV:   2    -0.158665447141E+04   -0.53597E-07   -0.11778E-06  5999   0.166E-03    0.124E-03
DAV:   3    -0.158665447141E+04   -0.53797E-09   -0.42450E-07  5992   0.100E-03    0.851E-04
DAV:   4    -0.158665447139E+04    0.24611E-07   -0.26168E-07  5999   0.865E-04    0.211E-04
DAV:   5    -0.158665447139E+04   -0.53346E-08   -0.13008E-07  5999   0.608E-04
  38 F= -.15866545E+04 E0= -.15866411E+04  d E =-.196787E-05
       N       E                     dE             d eps       ncg     rms          rms(c)
DAV:   1    -0.158665447850E+04   -0.71094E-05   -0.74659E-03 11662   0.111E-01    0.102E-02
DAV:   2    -0.158665448144E+04   -0.29431E-05   -0.55073E-05 11688   0.969E-03    0.786E-03
DAV:   3    -0.158665448098E+04    0.46252E-06   -0.81334E-06  6242   0.501E-03    0.531E-03
DAV:   4    -0.158665448008E+04    0.90130E-06   -0.44555E-06  6104   0.403E-03    0.137E-03
DAV:   5    -0.158665448007E+04    0.16194E-08   -0.15397E-06  6083   0.254E-03
  39 F= -.15866545E+04 E0= -.15866411E+04  d E =-.868168E-05
