       N       E                     dE             d eps       ncg     rms          rms(c)
DAV:   1     0.218315555395E+04    0.21832E+04   -0.28917E+05 11592   0.143E+03
DAV:   2    -0.119599180766E+04   -0.33791E+04   -0.32436E+04 13444   0.295E+02
DAV:   3    -0.162280370949E+04   -0.42681E+03   -0.39339E+03 17912   0.818E+01
DAV:   4    -0.164737395246E+04   -0.24570E+02   -0.22836E+02 16304   0.172E+01
DAV:   5    -0.164843389478E+04   -0.10599E+01   -0.10408E+01 17808   0.418E+00    0.407E+01
DAV:   6    -0.160363822710E+04    0.44796E+02   -0.10529E+02 17552   0.131E+01    0.220E+01
DAV:   7    -0.159149116582E+04    0.12147E+02   -0.84890E+01 16408   0.129E+01    0.148E+01
DAV:   8    -0.158358384016E+04    0.79073E+01   -0.40864E+01 16592   0.112E+01    0.765E+00
DAV:   9    -0.158022953390E+04    0.33543E+01   -0.15734E+01 17304   0.672E+00    0.254E+00
DAV:  10    -0.158019071536E+04    0.38819E-01   -0.33247E+00 16616   0.254E+00    0.151E+00
DAV:  11    -0.158017589110E+04    0.14824E-01   -0.49723E-01 15216   0.959E-01    0.911E-01
DAV:  12    -0.158016201330E+04    0.13878E-01   -0.11552E-01 14552   0.562E-01    0.484E-01
DAV:  13    -0.158015361676E+04    0.83965E-02   -0.33561E-02 16208   0.338E-01    0.284E-01
DAV:  14    -0.158015097406E+04    0.26427E-02   -0.16896E-02 15576   0.171E-01    0.977E-02
DAV:  15    -0.158015087985E+04    0.94216E-04   -0.39448E-03 15688   0.921E-02    0.493E-02
DAV:  16    -0.158015085622E+04    0.23623E-04   -0.82733E-04 16080   0.479E-02    0.356E-02
DAV:  17    -0.158015081098E+04    0.45243E-04   -0.29927E-04 15856   0.294E-02    0.212E-02
DAV:  18    -0.158015078091E+04    0.30070E-04   -0.90686E-05 13488   0.156E-02    0.971E-03
DAV:  19    -0.158015077422E+04    0.66933E-05   -0.23089E-05  7592   0.851E-03
   1 F= -.15801508E+04 E0= -.15801568E+04  d E =-.158015E+04
       N       E                     dE             d eps       ncg     rms          rms(c)
DAV:   1    -0.158608893197E+04   -0.59382E+01   -0.16216E+03 11592   0.607E+01    0.223E+01
DAV:   2    -0.156642759203E+04    0.19661E+02   -0.11221E+02 18136   0.134E+01    0.127E+01
DAV:   3    -0.156028288433E+04    0.61447E+01   -0.56546E+01 19824   0.932E+00    0.808E+00
DAV:   4    -0.155885976703E+04    0.14231E+01   -0.15107E+01 19312   0.600E+00    0.638E+00
DAV:   5    -0.155673256255E+04    0.21272E+01   -0.10648E+01 18808   0.459E+00    0.227E+00
DAV:   6    -0.155660104932E+04    0.13151E+00   -0.23039E+00 16520   0.199E+00    0.135E+00
DAV:   7    -0.155658599137E+04    0.15058E-01   -0.39582E-01 16448   0.902E-01    0.909E-01
DAV:   8    -0.155657704505E+04    0.89463E-02   -0.12533E-01 17488   0.441E-01    0.482E-01
DAV:   9    -0.155658360649E+04   -0.65614E-02   -0.74470E-02 18000   0.300E-01    0.293E-01
DAV:  10    -0.155658449508E+04   -0.88859E-03   -0.18324E-02 16912   0.215E-01    0.205E-01
DAV:  11    -0.155658321187E+04    0.12832E-02   -0.92855E-03 19424   0.140E-01    0.897E-02
DAV:  12    -0.155658343806E+04   -0.22618E-03   -0.40387E-03 18096   0.754E-02    0.582E-02
DAV:  13    -0.155658362995E+04   -0.19189E-03   -0.84862E-04 16496   0.393E-02    0.310E-02
DAV:  14    -0.155658365831E+04   -0.28363E-04   -0.31100E-04 18584   0.253E-02    0.192E-02
DAV:  15    -0.155658366832E+04   -0.10008E-04   -0.87148E-05 13136   0.136E-02    0.137E-02
DAV:  16    -0.155658366880E+04   -0.48476E-06   -0.29285E-05  7504   0.906E-03
   2 F= -.15565837E+04 E0= -.15565851E+04  d E =0.235671E+02
       N       E                     dE             d eps       ncg     rms          rms(c)
DAV:   1    -0.160003391529E+04   -0.43450E+02   -0.74666E+02 11592   0.456E+01    0.153E+01
DAV:   2    -0.158960880583E+04    0.10425E+02   -0.28744E+01 15962   0.809E+00    0.703E+00
DAV:   3    -0.158769884538E+04    0.19100E+01   -0.12658E+01 16304   0.477E+00    0.478E+00
DAV:   4    -0.158691888419E+04    0.77996E+00   -0.51390E+00 17784   0.404E+00    0.308E+00
DAV:   5    -0.158636662138E+04    0.55226E+00   -0.28381E+00 17392   0.278E+00    0.995E-01
DAV:   6    -0.158635552852E+04    0.11093E-01   -0.60066E-01 15360   0.114E+00    0.627E-01
DAV:   7    -0.158636067671E+04   -0.51482E-02   -0.93964E-02 15856   0.450E-01    0.443E-01
DAV:   8    -0.158636378764E+04   -0.31109E-02   -0.25383E-02 16064   0.224E-01    0.251E-01
DAV:   9    -0.158637126683E+04   -0.74792E-02   -0.22959E-02 16584   0.179E-01    0.173E-01
DAV:  10    -0.158637108542E+04    0.18140E-03   -0.47229E-03 16480   0.117E-01    0.914E-02
DAV:  11    -0.158637105769E+04    0.27733E-04   -0.22696E-03 17312   0.670E-02    0.417E-02
DAV:  12    -0.158637133232E+04   -0.27463E-03   -0.10377E-03 16464   0.426E-02    0.379E-02
DAV:  13    -0.158637139089E+04   -0.58576E-04   -0.23254E-04 15744   0.210E-02    0.160E-02
DAV:  14    -0.158637138842E+04    0.24695E-05   -0.52026E-05 10824   0.108E-02
   3 F= -.15863714E+04 E0= -.15863597E+04  d E =-.297877E+02
       N       E                     dE             d eps       ncg     rms          rms(c)
DAV:   1    -0.158649210778E+04   -0.12072E+00   -0.14324E+01 11592   0.500E+00    0.654E-01
DAV:   2    -0.158649988058E+04   -0.77728E-02   -0.24939E-01 16944   0.610E-01    0.429E-01
DAV:   3    -0.158649669112E+04    0.31895E-02   -0.43710E-02 18872   0.321E-01    0.329E-01
DAV:   4    -0.158649389722E+04    0.27939E-02   -0.15008E-02 18928   0.203E-01    0.213E-01
DAV:   5    -0.158649248263E+04    0.14146E-02   -0.88871E-03 16088   0.141E-01    0.779E-02
DAV:   6    -0.158649239264E+04    0.89984E-04   -0.23331E-03 16056   0.739E-02    0.428E-02
DAV:   7    -0.158649237252E+04    0.20126E-04   -0.45856E-04 16376   0.360E-02    0.316E-02
DAV:   8    -0.158649233989E+04    0.32629E-04   -0.16826E-04 15512   0.206E-02    0.181E-02
DAV:   9    -0.158649233685E+04    0.30317E-05   -0.66997E-05 12800   0.115E-02
   4 F= -.15864923E+04 E0= -.15864814E+04  d E =-.120948E+00
       N       E                     dE             d eps       ncg     rms          rms(c)
DAV:   1    -0.158651437290E+04   -0.22033E-01   -0.25171E+00 11616   0.210E+00    0.336E-01
DAV:   2    -0.158651414290E+04    0.23000E-03   -0.56224E-02 17360   0.317E-01    0.219E-01
DAV:   3    -0.158651248715E+04    0.16558E-02   -0.15287E-02 18880   0.194E-01    0.151E-01
DAV:   4    -0.158651174414E+04    0.74302E-03   -0.35459E-03 18984   0.977E-02    0.104E-01
DAV:   5    -0.158651135277E+04    0.39137E-03   -0.18469E-03 16208   0.626E-02    0.484E-02
DAV:   6    -0.158651126050E+04    0.92269E-04   -0.65876E-04 15584   0.385E-02    0.208E-02
DAV:   7    -0.158651126217E+04   -0.16757E-05   -0.11151E-04 13984   0.175E-02    0.156E-02
DAV:   8    -0.158651126159E+04    0.57840E-06   -0.35101E-05  8480   0.106E-02
   5 F= -.15865113E+04 E0= -.15864997E+04  d E =-.189247E-01
       N       E                     dE             d eps       ncg     rms          rms(c)
DAV:   1    -0.158651836234E+04   -0.71002E-02   -0.41924E-01 11688   0.928E-01    0.204E-01
DAV:   2    -0.158651703304E+04    0.13293E-02   -0.72091E-03 16528   0.110E-01    0.104E-01
DAV:   3    -0.158651684739E+04    0.18565E-03   -0.24267E-03 17488   0.721E-02    0.776E-02
DAV:   4    -0.158651664861E+04    0.19878E-03   -0.11624E-03 18016   0.588E-02    0.448E-02
DAV:   5    -0.158651660245E+04    0.46163E-04   -0.60641E-04 16304   0.379E-02    0.151E-02
DAV:   6    -0.158651660565E+04   -0.31977E-05   -0.98498E-05 13320   0.152E-02
   6 F= -.15865166E+04 E0= -.15865055E+04  d E =-.534405E-02
       N       E                     dE             d eps       ncg     rms          rms(c)
DAV:   1    -0.158652270366E+04   -0.61012E-02   -0.37490E-01 11682   0.822E-01    0.154E-01
DAV:   2    -0.158652223408E+04    0.46958E-03   -0.85400E-03 17392   0.126E-01    0.942E-02
DAV:   3    -0.158652192471E+04    0.30937E-03   -0.27958E-03 18954   0.831E-02    0.676E-02
DAV:   4    -0.158652174234E+04    0.18236E-03   -0.75328E-04 18920   0.448E-02    0.450E-02
DAV:   5    -0.158652163109E+04    0.11125E-03   -0.39082E-04 16088   0.288E-02    0.189E-02
DAV:   6    -0.158652160695E+04    0.24145E-04   -0.11333E-04 13816   0.164E-02    0.884E-03
DAV:   7    -0.158652160846E+04   -0.15158E-05   -0.18046E-05  7072   0.763E-03
   7 F= -.15865216E+04 E0= -.15865102E+04  d E =-.500282E-02
       N       E                     dE             d eps       ncg     rms          rms(c)
DAV:   1    -0.158652385420E+04   -0.22472E-02   -0.24861E-01 11640   0.649E-01    0.711E-02
DAV:   2    -0.158652405118E+04   -0.19699E-03   -0.29533E-03 16808   0.707E-02    0.554E-02
DAV:   3    -0.158652398310E+04    0.68080E-04   -0.57086E-04 18298   0.399E-02    0.417E-02
DAV:   4    -0.158652396030E+04    0.22801E-04   -0.19097E-04 16880   0.214E-02    0.259E-02
DAV:   5    -0.158652395168E+04    0.86192E-05   -0.12337E-04 14368   0.168E-02    0.705E-03
DAV:   6    -0.158652394957E+04    0.21119E-05   -0.19223E-05  7152   0.790E-03
   8 F= -.15865239E+04 E0= -.15865126E+04  d E =-.234110E-02
       N       E                     dE             d eps       ncg     rms          rms(c)
DAV:   1    -0.158652516455E+04   -0.12129E-02   -0.91354E-02 11712   0.402E-01    0.650E-02
DAV:   2    -0.158652506302E+04    0.10153E-03   -0.14463E-03 17144   0.514E-02    0.404E-02
DAV:   3    -0.158652501069E+04    0.52322E-04   -0.43901E-04 18964   0.334E-02    0.304E-02
DAV:   4    -0.158652496676E+04    0.43934E-04   -0.12962E-04 15960   0.189E-02    0.197E-02
DAV:   5    -0.158652493443E+04    0.32332E-04   -0.69733E-05 12472   0.131E-02    0.737E-03
DAV:   6    -0.158652492856E+04    0.58695E-05   -0.16389E-05  6776   0.755E-03
   9 F= -.15865249E+04 E0= -.15865135E+04  d E =-.978989E-03
       N       E                     dE             d eps       ncg     rms          rms(c)
DAV:   1    -0.158652578377E+04   -0.84934E-03   -0.50275E-02 11706   0.298E-01    0.431E-02
DAV:   2    -0.158652579152E+04   -0.77478E-05   -0.53262E-04 16720   0.301E-02    0.263E-02
DAV:   3    -0.158652579450E+04   -0.29787E-05   -0.11607E-04 15708   0.178E-02    0.210E-02
DAV:   4    -0.158652578934E+04    0.51576E-05   -0.51300E-05 10784   0.130E-02    0.980E-03
DAV:   5    -0.158652579636E+04   -0.70168E-05   -0.20423E-05  6970   0.821E-03
  10 F= -.15865258E+04 E0= -.15865144E+04  d E =-.867799E-03
       N       E                     dE             d eps       ncg     rms          rms(c)
DAV:   1    -0.158652666208E+04   -0.87274E-03   -0.82774E-02 11652   0.373E-01    0.396E-02
DAV:   2    -0.158652668743E+04   -0.25355E-04   -0.81991E-04 16976   0.371E-02    0.293E-02
DAV:   3    -0.158652667087E+04    0.16563E-04   -0.12355E-04 15728   0.186E-02    0.228E-02
DAV:   4    -0.158652665448E+04    0.16385E-04   -0.46745E-05 10512   0.117E-02    0.136E-02
DAV:   5    -0.158652664305E+04    0.11430E-04   -0.24688E-05  7544   0.922E-03    0.362E-03
DAV:   6    -0.158652664274E+04    0.31646E-06   -0.59091E-06  6448   0.520E-03
  11 F= -.15865266E+04 E0= -.15865152E+04  d E =-.846379E-03
       N       E                     dE             d eps       ncg     rms          rms(c)
DAV:   1    -0.158652738595E+04   -0.74290E-03   -0.92696E-02 11628   0.395E-01    0.397E-02
DAV:   2    -0.158652744040E+04   -0.54449E-04   -0.80265E-04 16864   0.357E-02    0.291E-02
DAV:   3    -0.158652743664E+04    0.37636E-05   -0.84580E-05 14046   0.156E-02    0.227E-02
DAV:   4    -0.158652743256E+04    0.40800E-05   -0.53062E-05 11512   0.127E-02    0.802E-03
DAV:   5    -0.158652743403E+04   -0.14689E-05   -0.16662E-05  7142   0.797E-03
  12 F= -.15865274E+04 E0= -.15865161E+04  d E =-.791292E-03
       N       E                     dE             d eps       ncg     rms          rms(c)
DAV:   1    -0.158652768732E+04   -0.25477E-03   -0.70153E-03 11748   0.116E-01    0.252E-02
DAV:   2    -0.158652764504E+04    0.42280E-04   -0.12752E-04 15704   0.156E-02    0.131E-02
DAV:   3    -0.158652763222E+04    0.12822E-04   -0.33119E-05  8778   0.101E-02    0.914E-03
DAV:   4    -0.158652762308E+04    0.91408E-05   -0.12223E-05  7136   0.813E-03    0.564E-03
DAV:   5    -0.158652761460E+04    0.84803E-05   -0.64811E-06  6280   0.506E-03
  13 F= -.15865276E+04 E0= -.15865162E+04  d E =-.180573E-03
       N       E                     dE             d eps       ncg     rms          rms(c)
DAV:   1    -0.158652812276E+04   -0.49968E-03   -0.49746E-02 11658   0.289E-01    0.279E-02
DAV:   2    -0.158652815285E+04   -0.30085E-04   -0.41606E-04 16912   0.256E-02    0.212E-02
DAV:   3    -0.158652814968E+04    0.31650E-05   -0.29757E-05  8970   0.106E-02    0.161E-02
DAV:   4    -0.158652814806E+04    0.16230E-05   -0.27392E-05  7800   0.984E-03    0.424E-03
DAV:   5    -0.158652814834E+04   -0.28514E-06   -0.76666E-06  6392   0.643E-03
  14 F= -.15865281E+04 E0= -.15865167E+04  d E =-.533743E-03
       N       E                     dE             d eps       ncg     rms          rms(c)
DAV:   1    -0.158652875183E+04   -0.60377E-03   -0.89568E-02 11628   0.387E-01    0.373E-02
DAV:   2    -0.158652878329E+04   -0.31461E-04   -0.78410E-04 17056   0.351E-02    0.279E-02
DAV:   3    -0.158652877074E+04    0.12548E-04   -0.74957E-05 13252   0.144E-02    0.211E-02
DAV:   4    -0.158652875399E+04    0.16756E-04   -0.41418E-05  9840   0.118E-02    0.101E-02
DAV:   5    -0.158652874668E+04    0.73022E-05   -0.17992E-05  7290   0.856E-03
  15 F= -.15865287E+04 E0= -.15865173E+04  d E =-.598339E-03
       N       E                     dE             d eps       ncg     rms          rms(c)
DAV:   1    -0.158652880295E+04   -0.48964E-04   -0.17520E-03 11760   0.643E-02    0.189E-02
DAV:   2    -0.158652880394E+04   -0.99093E-06   -0.35770E-05  7200   0.106E-02    0.901E-03
DAV:   3    -0.158652880903E+04   -0.50862E-05   -0.15412E-05  6960   0.937E-03    0.687E-03
DAV:   4    -0.158652881212E+04   -0.30896E-05   -0.70768E-06  6648   0.655E-03    0.286E-03
DAV:   5    -0.158652881622E+04   -0.41052E-05   -0.37684E-06  6048   0.335E-03
  16 F= -.15865288E+04 E0= -.15865174E+04  d E =-.695386E-04
       N       E                     dE             d eps       ncg     rms          rms(c)
DAV:   1    -0.158652918198E+04   -0.36987E-03   -0.34534E-02 11658   0.241E-01    0.245E-02
DAV:   2    -0.158652918727E+04   -0.52816E-05   -0.30593E-04 16928   0.219E-02    0.178E-02
DAV:   3    -0.158652917927E+04    0.79987E-05   -0.22969E-05  8050   0.899E-03    0.128E-02
DAV:   4    -0.158652917151E+04    0.77543E-05   -0.15382E-05  7344   0.848E-03    0.639E-03
DAV:   5    -0.158652916728E+04    0.42336E-05   -0.80686E-06  6304   0.617E-03
  17 F= -.15865292E+04 E0= -.15865178E+04  d E =-.351057E-03
       N       E                     dE             d eps       ncg     rms          rms(c)
DAV:   1    -0.158652950422E+04   -0.33271E-03   -0.42258E-02 11640   0.266E-01    0.243E-02
DAV:   2    -0.158652953108E+04   -0.26858E-04   -0.35586E-04 16976   0.234E-02    0.187E-02
DAV:   3    -0.158652952850E+04    0.25828E-05   -0.20491E-05  8026   0.898E-03    0.130E-02
DAV:   4    -0.158652952743E+04    0.10629E-05   -0.19379E-05  7488   0.892E-03    0.352E-03
DAV:   5    -0.158652952740E+04    0.30204E-07   -0.55765E-06  6232   0.561E-03
  18 F= -.15865295E+04 E0= -.15865181E+04  d E =-.360124E-03
       N       E                     dE             d eps       ncg     rms          rms(c)
DAV:   1    -0.158652975315E+04   -0.22571E-03   -0.19790E-02 11664   0.184E-01    0.221E-02
DAV:   2    -0.158652974038E+04    0.12770E-04   -0.20180E-04 16784   0.179E-02    0.143E-02
DAV:   3    -0.158652973112E+04    0.92530E-05   -0.21250E-05  7700   0.844E-03    0.100E-02
DAV:   4    -0.158652972396E+04    0.71598E-05   -0.11188E-05  6856   0.767E-03    0.611E-03
DAV:   5    -0.158652971757E+04    0.63967E-05   -0.65568E-06  6160   0.531E-03
  19 F= -.15865297E+04 E0= -.15865183E+04  d E =-.190165E-03
       N       E                     dE             d eps       ncg     rms          rms(c)
DAV:   1    -0.158652983830E+04   -0.11434E-03   -0.55962E-03 11676   0.993E-02    0.146E-02
DAV:   2    -0.158652984562E+04   -0.73210E-05   -0.51434E-05 11088   0.100E-02    0.873E-03
DAV:   3    -0.158652984903E+04   -0.34150E-05   -0.12013E-05  6982   0.677E-03    0.642E-03
DAV:   4    -0.158652985217E+04   -0.31363E-05   -0.50919E-06  6136   0.513E-03    0.303E-03
DAV:   5    -0.158652985533E+04   -0.31558E-05   -0.29171E-06  6048   0.317E-03
  20 F= -.15865299E+04 E0= -.15865185E+04  d E =-.137760E-03
       N       E                     dE             d eps       ncg     rms          rms(c)
DAV:   1    -0.158653005971E+04   -0.20754E-03   -0.20601E-02 11640   0.186E-01    0.178E-02
DAV:   2    -0.158653006665E+04   -0.69375E-05   -0.17875E-04 16536   0.164E-02    0.135E-02
DAV:   3    -0.158653006203E+04    0.46128E-05   -0.11635E-05  7084   0.630E-03    0.848E-03
DAV:   4    -0.158653005821E+04    0.38183E-05   -0.84953E-06  6544   0.645E-03    0.314E-03
DAV:   5    -0.158653005728E+04    0.93918E-06   -0.31116E-06  6112   0.431E-03
  21 F= -.15865301E+04 E0= -.15865187E+04  d E =-.201949E-03
       N       E                     dE             d eps       ncg     rms          rms(c)
DAV:   1    -0.158653027046E+04   -0.21225E-03   -0.32014E-02 11628   0.232E-01    0.223E-02
DAV:   2    -0.158653029258E+04   -0.22112E-04   -0.27170E-04 16992   0.205E-02    0.165E-02
DAV:   3    -0.158653029219E+04    0.38771E-06   -0.17650E-05  7714   0.782E-03    0.104E-02
DAV:   4    -0.158653029403E+04   -0.18426E-05   -0.11998E-05  7248   0.800E-03    0.400E-03
DAV:   5    -0.158653029483E+04   -0.79845E-06   -0.47805E-06  6160   0.521E-03
  22 F= -.15865303E+04 E0= -.15865189E+04  d E =-.237553E-03
       N       E                     dE             d eps       ncg     rms          rms(c)
DAV:   1    -0.158653033309E+04   -0.39057E-04   -0.56573E-04 11724   0.368E-02    0.112E-02
DAV:   2    -0.158653031722E+04    0.15862E-04   -0.12724E-05  6048   0.611E-03    0.524E-03
DAV:   3    -0.158653031250E+04    0.47263E-05   -0.55365E-06  6042   0.546E-03    0.394E-03
DAV:   4    -0.158653030853E+04    0.39699E-05   -0.24631E-06  6048   0.380E-03    0.172E-03
DAV:   5    -0.158653030587E+04    0.26540E-05   -0.13296E-06  6048   0.198E-03
  23 F= -.15865303E+04 E0= -.15865189E+04  d E =-.110462E-04
       N       E                     dE             d eps       ncg     rms          rms(c)
DAV:   1    -0.158653044283E+04   -0.13430E-03   -0.14274E-02 11640   0.155E-01    0.147E-02
DAV:   2    -0.158653045247E+04   -0.96338E-05   -0.11859E-04 15864   0.135E-02    0.111E-02
DAV:   3    -0.158653045221E+04    0.26124E-06   -0.86435E-06  6684   0.544E-03    0.673E-03
DAV:   4    -0.158653045299E+04   -0.78214E-06   -0.58827E-06  6280   0.543E-03    0.222E-03
DAV:   5    -0.158653045304E+04   -0.55912E-07   -0.19663E-06  6082   0.337E-03
  24 F= -.15865305E+04 E0= -.15865191E+04  d E =-.147169E-03
       N       E                     dE             d eps       ncg     rms          rms(c)
DAV:   1    -0.158653061198E+04   -0.15899E-03   -0.22547E-02 11628   0.194E-01    0.183E-02
DAV:   2    -0.158653061809E+04   -0.61042E-05   -0.19268E-04 16648   0.172E-02    0.137E-02
DAV:   3    -0.158653061256E+04    0.55256E-05   -0.12300E-05  7098   0.630E-03    0.863E-03
DAV:   4    -0.158653060832E+04    0.42455E-05   -0.84901E-06  6616   0.649E-03    0.359E-03
DAV:   5    -0.158653060686E+04    0.14576E-05   -0.34441E-06  6120   0.461E-03
  25 F= -.15865306E+04 E0= -.15865192E+04  d E =-.153814E-03
       N       E                     dE             d eps       ncg     rms          rms(c)
DAV:   1    -0.158653062678E+04   -0.18464E-04   -0.76005E-04 11700   0.393E-02    0.903E-03
DAV:   2    -0.158653063154E+04   -0.47594E-05   -0.98215E-06  6048   0.521E-03    0.446E-03
DAV:   3    -0.158653063472E+04   -0.31802E-05   -0.42116E-06  6048   0.443E-03    0.328E-03
DAV:   4    -0.158653063682E+04   -0.21037E-05   -0.19811E-06  6048   0.329E-03    0.144E-03
DAV:   5    -0.158653063883E+04   -0.20118E-05   -0.11400E-06  6048   0.182E-03
  26 F= -.15865306E+04 E0= -.15865193E+04  d E =-.319769E-04
       N       E                     dE             d eps       ncg     rms          rms(c)
DAV:   1    -0.158653073474E+04   -0.97917E-04   -0.83375E-03 11640   0.118E-01    0.123E-02
DAV:   2    -0.158653073298E+04    0.17622E-05   -0.70508E-05 13328   0.108E-02    0.878E-03
DAV:   3    -0.158653072978E+04    0.31939E-05   -0.90261E-06  6332   0.516E-03    0.560E-03
DAV:   4    -0.158653072702E+04    0.27643E-05   -0.40448E-06  6072   0.435E-03    0.280E-03
DAV:   5    -0.158653072561E+04    0.14063E-05   -0.20407E-06  6048   0.324E-03
  27 F= -.15865307E+04 E0= -.15865193E+04  d E =-.867788E-04
       N       E                     dE             d eps       ncg     rms          rms(c)
DAV:   1    -0.158653080845E+04   -0.81430E-04   -0.95706E-03 11628   0.126E-01    0.117E-02
DAV:   2    -0.158653081599E+04   -0.75412E-05   -0.81001E-05 14536   0.111E-02    0.896E-03
DAV:   3    -0.158653081639E+04   -0.39638E-06   -0.73732E-06  6482   0.495E-03    0.556E-03
DAV:   4    -0.158653081745E+04   -0.10593E-05   -0.44072E-06  6096   0.449E-03    0.169E-03
DAV:   5    -0.158653081750E+04   -0.53516E-07   -0.14747E-06  6048   0.278E-03
  28 F= -.15865308E+04 E0= -.15865194E+04  d E =-.918867E-04
       N       E                     dE             d eps       ncg     rms          rms(c)
DAV:   1    -0.158653087562E+04   -0.58171E-04   -0.41978E-03 11652   0.845E-02    0.990E-03
DAV:   2    -0.158653086875E+04    0.68643E-05   -0.27026E-05  7808   0.813E-03    0.617E-03
DAV:   3    -0.158653086585E+04    0.29050E-05   -0.95640E-06  6144   0.513E-03    0.390E-03
DAV:   4    -0.158653086355E+04    0.22966E-05   -0.47712E-06  6030   0.412E-03    0.223E-03
DAV:   5    -0.158653086215E+04    0.14065E-05   -0.28613E-06  6012   0.301E-03
  29 F= -.15865309E+04 E0= -.15865195E+04  d E =-.446451E-04
       N       E                     dE             d eps       ncg     rms          rms(c)
DAV:   1    -0.158653089811E+04   -0.34555E-04   -0.23490E-03 11640   0.635E-02    0.835E-03
DAV:   2    -0.158653090249E+04   -0.43850E-05   -0.17447E-05  6238   0.654E-03    0.517E-03
DAV:   3    -0.158653090497E+04   -0.24784E-05   -0.70230E-06  6006   0.457E-03    0.347E-03
DAV:   4    -0.158653090687E+04   -0.19017E-05   -0.36618E-06  6012   0.364E-03    0.178E-03
DAV:   5    -0.158653090831E+04   -0.14387E-05   -0.22102E-06  6012   0.257E-03
  30 F= -.15865309E+04 E0= -.15865195E+04  d E =-.461655E-04
       N       E                     dE             d eps       ncg     rms          rms(c)
DAV:   1    -0.158653095879E+04   -0.51914E-04   -0.41426E-03 11640   0.832E-02    0.839E-03
DAV:   2    -0.158653095743E+04    0.13582E-05   -0.27446E-05  8592   0.782E-03    0.596E-03
DAV:   3    -0.158653095626E+04    0.11706E-05   -0.88125E-06  6192   0.469E-03    0.359E-03
DAV:   4    -0.158653095497E+04    0.12862E-05   -0.47809E-06  6012   0.399E-03    0.149E-03
DAV:   5    -0.158653095477E+04    0.20426E-06   -0.26761E-06  6012   0.291E-03
  31 F= -.15865310E+04 E0= -.15865196E+04  d E =-.464559E-04
       N       E                     dE             d eps       ncg     rms          rms(c)
DAV:   1    -0.158653100333E+04   -0.48358E-04   -0.58519E-03 11640   0.989E-02    0.969E-03
DAV:   2    -0.158653100920E+04   -0.58667E-05   -0.50307E-05 11128   0.917E-03    0.724E-03
DAV:   3    -0.158653101056E+04   -0.13597E-05   -0.82755E-06  6138   0.494E-03    0.430E-03
DAV:   4    -0.158653101215E+04   -0.15906E-05   -0.35899E-06  6030   0.392E-03    0.166E-03
DAV:   5    -0.158653101257E+04   -0.42027E-06   -0.16987E-06  5994   0.269E-03
  32 F= -.15865310E+04 E0= -.15865196E+04  d E =-.577999E-04
       N       E                     dE             d eps       ncg     rms          rms(c)
DAV:   1    -0.158653102862E+04   -0.16478E-04   -0.31738E-04 11620   0.242E-02    0.466E-03
DAV:   2    -0.158653102414E+04    0.44836E-05   -0.39534E-06  5958   0.314E-03    0.238E-03
DAV:   3    -0.158653102257E+04    0.15670E-05   -0.16343E-06  5958   0.251E-03    0.171E-03
DAV:   4    -0.158653102130E+04    0.12768E-05   -0.76672E-07  5958   0.179E-03    0.894E-04
DAV:   5    -0.158653102031E+04    0.99196E-06   -0.46327E-07  5958   0.117E-03
  33 F= -.15865310E+04 E0= -.15865196E+04  d E =-.773867E-05
       N       E                     dE             d eps       ncg     rms          rms(c)
DAV:   1    -0.158653105797E+04   -0.36669E-04   -0.38075E-03 11640   0.797E-02    0.752E-03
DAV:   2    -0.158653105967E+04   -0.16987E-05   -0.20464E-05  7512   0.703E-03    0.550E-03
DAV:   3    -0.158653106035E+04   -0.68551E-06   -0.76754E-06  6094   0.417E-03    0.279E-03
DAV:   4    -0.158653106095E+04   -0.60276E-06   -0.41771E-06  5994   0.366E-03    0.988E-04
DAV:   5    -0.158653106105E+04   -0.91469E-07   -0.21824E-06  5994   0.253E-03
  34 F= -.15865311E+04 E0= -.15865197E+04  d E =-.407398E-04
       N       E                     dE             d eps       ncg     rms          rms(c)
DAV:   1    -0.158653113763E+04   -0.76673E-04   -0.20407E-02 11616   0.185E-01    0.179E-02
DAV:   2    -0.158653114244E+04   -0.48153E-05   -0.18682E-04 16616   0.167E-02    0.133E-02
DAV:   3    -0.158653113621E+04    0.62368E-05   -0.12078E-05  6780   0.575E-03    0.780E-03
DAV:   4    -0.158653113178E+04    0.44204E-05   -0.76119E-06  6352   0.568E-03    0.291E-03
DAV:   5    -0.158653113094E+04    0.84146E-06   -0.26109E-06  6106   0.422E-03
  35 F= -.15865311E+04 E0= -.15865197E+04  d E =-.698978E-04
       N       E                     dE             d eps       ncg     rms          rms(c)
DAV:   1    -0.158653109325E+04    0.38538E-04   -0.55261E-03 11616   0.969E-02    0.114E-02
DAV:   2    -0.158653109767E+04   -0.44191E-05   -0.31229E-05  7864   0.873E-03    0.727E-03
DAV:   3    -0.158653110044E+04   -0.27706E-05   -0.98938E-06  5988   0.502E-03    0.403E-03
DAV:   4    -0.158653110251E+04   -0.20717E-05   -0.47006E-06  5994   0.412E-03    0.227E-03
DAV:   5    -0.158653110359E+04   -0.10853E-05   -0.25660E-06  5976   0.304E-03
  36 F= -.15865311E+04 E0= -.15865197E+04  d E =0.273502E-04
       N       E                     dE             d eps       ncg     rms          rms(c)
DAV:   1    -0.158653114441E+04   -0.41898E-04   -0.58883E-03 11616   0.993E-02    0.888E-03
DAV:   2    -0.158653114531E+04   -0.90534E-06   -0.26971E-05  7488   0.827E-03    0.650E-03
DAV:   3    -0.158653114502E+04    0.28941E-06   -0.82948E-06  5988   0.448E-03    0.348E-03
DAV:   4    -0.158653114487E+04    0.14766E-06   -0.44956E-06  5994   0.397E-03    0.115E-03
DAV:   5    -0.158653114497E+04   -0.96044E-07   -0.21348E-06  5958   0.261E-03
  37 F= -.15865311E+04 E0= -.15865198E+04  d E =-.413769E-04
       N       E                     dE             d eps       ncg     rms          rms(c)
DAV:   1    -0.158653123159E+04   -0.86719E-04   -0.59087E-02 11592   0.314E-01    0.286E-02
DAV:   2    -0.158653126130E+04   -0.29709E-04   -0.49969E-04 17032   0.274E-02    0.220E-02
DAV:   3    -0.158653124960E+04    0.11699E-04   -0.39696E-05  9812   0.960E-03    0.949E-03
DAV:   4    -0.158653124770E+04    0.18986E-05   -0.15833E-05  7736   0.862E-03    0.500E-03
DAV:   5    -0.158653124617E+04    0.15340E-05   -0.50993E-06  6476   0.596E-03
  38 F= -.15865312E+04 E0= -.15865199E+04  d E =-.101201E-03
       N       E                     dE             d eps       ncg     rms          rms(c)
DAV:   1    -0.158653128599E+04   -0.38281E-04   -0.65352E-02 11592   0.330E-01    0.298E-02
DAV:   2    -0.158653131971E+04   -0.33726E-04   -0.54622E-04 16992   0.287E-02    0.229E-02
DAV:   3    -0.158653130856E+04    0.11150E-04   -0.42313E-05 10136   0.996E-03    0.115E-02
DAV:   4    -0.158653130515E+04    0.34100E-05   -0.18949E-05  7704   0.899E-03    0.472E-03
DAV:   5    -0.158653130398E+04    0.11684E-05   -0.55521E-06  6512   0.627E-03
  39 F= -.15865313E+04 E0= -.15865199E+04  d E =-.578118E-04
       N       E                     dE             d eps       ncg     rms          rms(c)
DAV:   1    -0.158653130601E+04   -0.85779E-06   -0.38953E-03 11640   0.808E-02    0.735E-03
DAV:   2    -0.158653130986E+04   -0.38528E-05   -0.23589E-05  7712   0.742E-03    0.525E-03
DAV:   3    -0.158653131151E+04   -0.16528E-05   -0.80863E-06  6152   0.429E-03    0.315E-03
DAV:   4    -0.158653131311E+04   -0.15994E-05   -0.44372E-06  6048   0.364E-03    0.141E-03
DAV:   5    -0.158653131366E+04   -0.54626E-06   -0.25422E-06  6030   0.279E-03
  40 F= -.15865313E+04 E0= -.15865199E+04  d E =-.967752E-05
       N       E                     dE             d eps       ncg     rms          rms(c)
DAV:   1    -0.158653131415E+04   -0.10320E-05   -0.12706E-03 11640   0.465E-02    0.502E-03
DAV:   2    -0.158653131114E+04    0.30066E-05   -0.55788E-06  5958   0.389E-03    0.330E-03
DAV:   3    -0.158653130966E+04    0.14802E-05   -0.15975E-06  5946   0.223E-03    0.217E-03
DAV:   4    -0.158653130826E+04    0.14003E-05   -0.79394E-07  5958   0.187E-03    0.911E-04
DAV:   5    -0.158653130773E+04    0.52890E-06   -0.40308E-07  5958   0.116E-03
  41 F= -.15865313E+04 E0= -.15865199E+04  d E =0.593025E-05
       N       E                     dE             d eps       ncg     rms          rms(c)
DAV:   1    -0.158653130994E+04   -0.16782E-05   -0.40524E-04 11616   0.261E-02    0.231E-03
DAV:   2    -0.158653131008E+04   -0.13974E-06   -0.18532E-06  5940   0.224E-03    0.170E-03
DAV:   3    -0.158653131010E+04   -0.25966E-07   -0.52807E-07  5928   0.122E-03    0.120E-03
DAV:   4    -0.158653131015E+04   -0.49001E-07   -0.34738E-07  5940   0.108E-03    0.351E-04
DAV:   5    -0.158653131017E+04   -0.19161E-07   -0.16189E-07  5940   0.752E-04
  42 F= -.15865313E+04 E0= -.15865199E+04  d E =-.244100E-05
       N       E                     dE             d eps       ncg     rms          rms(c)
DAV:   1    -0.158653131282E+04   -0.26687E-05   -0.15406E-03 11640   0.507E-02    0.460E-03
DAV:   2    -0.158653131346E+04   -0.64063E-06   -0.82926E-06  5958   0.449E-03    0.339E-03
DAV:   3    -0.158653131367E+04   -0.20563E-06   -0.30956E-06  5958   0.262E-03    0.148E-03
DAV:   4    -0.158653131389E+04   -0.22146E-06   -0.16102E-06  5958   0.228E-03    0.631E-04
DAV:   5    -0.158653131392E+04   -0.36741E-07   -0.86394E-07  5958   0.165E-03
  43 F= -.15865313E+04 E0= -.15865199E+04  d E =-.375399E-05
