       N       E                     dE             d eps       ncg     rms          rms(c)
DAV:   1     0.199394986920E+04    0.19939E+04   -0.27968E+05 11284   0.142E+03
DAV:   2    -0.118628214250E+04   -0.31802E+04   -0.30536E+04 13022   0.273E+02
DAV:   3    -0.158844840287E+04   -0.40217E+03   -0.36655E+03 17600   0.823E+01
DAV:   4    -0.161364650803E+04   -0.25198E+02   -0.22860E+02 15992   0.165E+01
DAV:   5    -0.161479152443E+04   -0.11450E+01   -0.11190E+01 17032   0.443E+00    0.388E+01
DAV:   6    -0.157709056718E+04    0.37701E+02   -0.12228E+02 17616   0.152E+01    0.225E+01
DAV:   7    -0.156623627301E+04    0.10854E+02   -0.96352E+01 17648   0.158E+01    0.174E+01
DAV:   8    -0.155737483922E+04    0.88614E+01   -0.61956E+01 16856   0.118E+01    0.113E+01
DAV:   9    -0.155043601074E+04    0.69388E+01   -0.27403E+01 16240   0.828E+00    0.340E+00
DAV:  10    -0.155025093181E+04    0.18508E+00   -0.57247E+00 16232   0.327E+00    0.145E+00
DAV:  11    -0.155025929977E+04   -0.83680E-02   -0.68877E-01 15280   0.122E+00    0.107E+00
DAV:  12    -0.155024216434E+04    0.17135E-01   -0.21413E-01 15040   0.684E-01    0.704E-01
DAV:  13    -0.155022750600E+04    0.14658E-01   -0.73385E-02 14688   0.436E-01    0.429E-01
DAV:  14    -0.155022065894E+04    0.68471E-02   -0.25619E-02 15296   0.233E-01    0.202E-01
DAV:  15    -0.155021956421E+04    0.10947E-02   -0.86379E-03 16528   0.142E-01    0.104E-01
DAV:  16    -0.155021933572E+04    0.22849E-03   -0.29858E-03 16128   0.808E-02    0.519E-02
DAV:  17    -0.155021932860E+04    0.71200E-05   -0.93384E-04 14568   0.440E-02    0.300E-02
DAV:  18    -0.155021932059E+04    0.80186E-05   -0.24175E-04 15824   0.262E-02    0.207E-02
DAV:  19    -0.155021930155E+04    0.19035E-04   -0.89346E-05 13488   0.154E-02    0.109E-02
DAV:  20    -0.155021929393E+04    0.76191E-05   -0.26850E-05  7208   0.879E-03
   1 F= -.15502193E+04 E0= -.15502166E+04  d E =-.155022E+04
       N       E                     dE             d eps       ncg     rms          rms(c)
DAV:   1    -0.155466722166E+04   -0.44479E+01   -0.23903E+03 11284   0.754E+01    0.267E+01
DAV:   2    -0.152810439858E+04    0.26563E+02   -0.15580E+02 18392   0.176E+01    0.172E+01
DAV:   3    -0.152029932778E+04    0.78051E+01   -0.90235E+01 18864   0.133E+01    0.133E+01
DAV:   4    -0.151463484771E+04    0.56645E+01   -0.37074E+01 19624   0.852E+00    0.957E+00
DAV:   5    -0.151079855247E+04    0.38363E+01   -0.25946E+01 17920   0.620E+00    0.426E+00
DAV:   6    -0.151027918417E+04    0.51937E+00   -0.62563E+00 17832   0.323E+00    0.254E+00
DAV:   7    -0.151017163533E+04    0.10755E+00   -0.10448E+00 15800   0.143E+00    0.188E+00
DAV:   8    -0.151011769261E+04    0.53943E-01   -0.37016E-01 17984   0.667E-01    0.100E+00
DAV:   9    -0.151011251306E+04    0.51795E-02   -0.22812E-01 17832   0.474E-01    0.461E-01
DAV:  10    -0.151011253172E+04   -0.18651E-04   -0.50630E-02 18008   0.315E-01    0.341E-01
DAV:  11    -0.151010849993E+04    0.40318E-02   -0.20141E-02 18512   0.197E-01    0.163E-01
DAV:  12    -0.151010875689E+04   -0.25697E-03   -0.76590E-03 17704   0.101E-01    0.924E-02
DAV:  13    -0.151010925795E+04   -0.50105E-03   -0.22824E-03 16776   0.593E-02    0.566E-02
DAV:  14    -0.151010944147E+04   -0.18353E-03   -0.93942E-04 17040   0.453E-02    0.500E-02
DAV:  15    -0.151010942027E+04    0.21204E-04   -0.45949E-04 17064   0.304E-02    0.301E-02
DAV:  16    -0.151010939956E+04    0.20707E-04   -0.20819E-04 17656   0.177E-02    0.121E-02
DAV:  17    -0.151010940602E+04   -0.64574E-05   -0.28351E-05  7432   0.767E-03
   2 F= -.15101094E+04 E0= -.15101201E+04  d E =0.401099E+02
       N       E                     dE             d eps       ncg     rms          rms(c)
DAV:   1    -0.158032109771E+04   -0.70212E+02   -0.12034E+03 11284   0.591E+01    0.187E+01
DAV:   2    -0.156619293505E+04    0.14128E+02   -0.45741E+01 17141   0.110E+01    0.962E+00
DAV:   3    -0.156332613039E+04    0.28668E+01   -0.27747E+01 17624   0.796E+00    0.749E+00
DAV:   4    -0.156122342865E+04    0.21027E+01   -0.12139E+01 17784   0.556E+00    0.501E+00
DAV:   5    -0.155989895732E+04    0.13245E+01   -0.67666E+00 16320   0.391E+00    0.168E+00
DAV:   6    -0.155982920869E+04    0.69749E-01   -0.14846E+00 15152   0.169E+00    0.870E-01
DAV:   7    -0.155983923623E+04   -0.10028E-01   -0.19966E-01 14760   0.653E-01    0.662E-01
DAV:   8    -0.155984224839E+04   -0.30122E-02   -0.49389E-02 15952   0.297E-01    0.370E-01
DAV:   9    -0.155985525944E+04   -0.13011E-01   -0.59626E-02 16376   0.277E-01    0.286E-01
DAV:  10    -0.155985329566E+04    0.19638E-02   -0.12100E-02 15712   0.181E-01    0.138E-01
DAV:  11    -0.155985301064E+04    0.28502E-03   -0.36511E-03 16600   0.812E-02    0.710E-02
DAV:  12    -0.155985325775E+04   -0.24712E-03   -0.18844E-03 16592   0.565E-02    0.478E-02
DAV:  13    -0.155985351861E+04   -0.26085E-03   -0.57362E-04 13704   0.341E-02    0.284E-02
DAV:  14    -0.155985352224E+04   -0.36372E-05   -0.14179E-04 13584   0.173E-02    0.146E-02
DAV:  15    -0.155985351686E+04    0.53827E-05   -0.31223E-05  7216   0.889E-03
   3 F= -.15598535E+04 E0= -.15598708E+04  d E =-.497441E+02
       N       E                     dE             d eps       ncg     rms          rms(c)
DAV:   1    -0.156021132293E+04   -0.35780E+00   -0.23227E+01 11284   0.677E+00    0.115E+00
DAV:   2    -0.156018572629E+04    0.25597E-01   -0.36561E-01 16288   0.744E-01    0.688E-01
DAV:   3    -0.156017992501E+04    0.58013E-02   -0.10979E-01 18440   0.503E-01    0.583E-01
DAV:   4    -0.156016382008E+04    0.16105E-01   -0.52684E-02 17264   0.361E-01    0.295E-01
DAV:   5    -0.156016047476E+04    0.33453E-02   -0.25575E-02 15160   0.235E-01    0.113E-01
DAV:   6    -0.156016031082E+04    0.16393E-03   -0.52209E-03 14816   0.112E-01    0.749E-02
DAV:   7    -0.156016025448E+04    0.56346E-04   -0.12035E-03 15728   0.558E-02    0.546E-02
DAV:   8    -0.156016021364E+04    0.40839E-04   -0.46075E-04 15832   0.312E-02    0.296E-02
DAV:   9    -0.156016023895E+04   -0.25306E-04   -0.22396E-04 14864   0.193E-02    0.180E-02
DAV:  10    -0.156016024461E+04   -0.56681E-05   -0.49077E-05 10184   0.123E-02
   4 F= -.15601602E+04 E0= -.15601792E+04  d E =-.306728E+00
       N       E                     dE             d eps       ncg     rms          rms(c)
DAV:   1    -0.156020996066E+04   -0.49722E-01   -0.39018E+00 11284   0.265E+00    0.416E-01
DAV:   2    -0.156021400846E+04   -0.40478E-02   -0.95954E-02 17864   0.466E-01    0.367E-01
DAV:   3    -0.156020686386E+04    0.71446E-02   -0.35657E-02 18008   0.308E-01    0.208E-01
DAV:   4    -0.156020533415E+04    0.15297E-02   -0.75648E-03 16768   0.125E-01    0.137E-01
DAV:   5    -0.156020470463E+04    0.62951E-03   -0.35546E-03 15600   0.881E-02    0.746E-02
DAV:   6    -0.156020450253E+04    0.20210E-03   -0.14247E-03 15312   0.592E-02    0.400E-02
DAV:   7    -0.156020444500E+04    0.57540E-04   -0.37795E-04 15424   0.325E-02    0.244E-02
DAV:   8    -0.156020444196E+04    0.30311E-05   -0.10274E-04 13096   0.143E-02    0.139E-02
DAV:   9    -0.156020444718E+04   -0.52125E-05   -0.38788E-05  8424   0.971E-03
   5 F= -.15602044E+04 E0= -.15602224E+04  d E =-.442026E-01
       N       E                     dE             d eps       ncg     rms          rms(c)
DAV:   1    -0.156022155756E+04   -0.17116E-01   -0.19212E+00 11284   0.185E+00    0.215E-01
DAV:   2    -0.156022440947E+04   -0.28519E-02   -0.31533E-02 17312   0.248E-01    0.215E-01
DAV:   3    -0.156022217901E+04    0.22305E-02   -0.93830E-03 17928   0.159E-01    0.120E-01
DAV:   4    -0.156022191991E+04    0.25910E-03   -0.20326E-03 16176   0.634E-02    0.805E-02
DAV:   5    -0.156022176655E+04    0.15336E-03   -0.12196E-03 14736   0.508E-02    0.328E-02
DAV:   6    -0.156022175987E+04    0.66861E-05   -0.36461E-04 15768   0.312E-02    0.209E-02
DAV:   7    -0.156022174130E+04    0.18568E-04   -0.11180E-04 14208   0.178E-02    0.109E-02
DAV:   8    -0.156022173486E+04    0.64417E-05   -0.22326E-05  6992   0.778E-03
   6 F= -.15602217E+04 E0= -.15602397E+04  d E =-.172877E-01
       N       E                     dE             d eps       ncg     rms          rms(c)
DAV:   1    -0.156022958657E+04   -0.78453E-02   -0.43847E-01 11326   0.925E-01    0.190E-01
DAV:   2    -0.156022929521E+04    0.29136E-03   -0.12722E-02 17928   0.181E-01    0.150E-01
DAV:   3    -0.156022813645E+04    0.11588E-02   -0.60803E-03 18080   0.127E-01    0.909E-02
DAV:   4    -0.156022776204E+04    0.37441E-03   -0.15342E-03 16240   0.562E-02    0.566E-02
DAV:   5    -0.156022758406E+04    0.17799E-03   -0.74058E-04 15304   0.417E-02    0.284E-02
DAV:   6    -0.156022753293E+04    0.51130E-04   -0.24976E-04 15232   0.256E-02    0.157E-02
DAV:   7    -0.156022752287E+04    0.10057E-04   -0.56755E-05 11872   0.130E-02    0.988E-03
DAV:   8    -0.156022752469E+04   -0.18171E-05   -0.15508E-05  6512   0.647E-03
   7 F= -.15602275E+04 E0= -.15602449E+04  d E =-.578983E-02
       N       E                     dE             d eps       ncg     rms          rms(c)
DAV:   1    -0.156023244435E+04   -0.49215E-02   -0.37179E-01 11314   0.820E-01    0.104E-01
DAV:   2    -0.156023290370E+04   -0.45935E-03   -0.55313E-03 17144   0.105E-01    0.973E-02
DAV:   3    -0.156023247866E+04    0.42503E-03   -0.18177E-03 18008   0.700E-02    0.569E-02
DAV:   4    -0.156023243060E+04    0.48067E-04   -0.45717E-04 15632   0.304E-02    0.332E-02
DAV:   5    -0.156023242083E+04    0.97681E-05   -0.25367E-04 14888   0.240E-02    0.139E-02
DAV:   6    -0.156023242064E+04    0.18745E-06   -0.65001E-05 12520   0.144E-02
   8 F= -.15602324E+04 E0= -.15602499E+04  d E =-.489595E-02
       N       E                     dE             d eps       ncg     rms          rms(c)
DAV:   1    -0.156023510800E+04   -0.26872E-02   -0.24177E-01 11302   0.652E-01    0.865E-02
DAV:   2    -0.156023548426E+04   -0.37626E-03   -0.46482E-03 17880   0.107E-01    0.902E-02
DAV:   3    -0.156023501179E+04    0.47246E-03   -0.18278E-03 17871   0.706E-02    0.456E-02
DAV:   4    -0.156023494778E+04    0.64016E-04   -0.33343E-04 16112   0.252E-02    0.316E-02
DAV:   5    -0.156023490433E+04    0.43446E-04   -0.17186E-04 15056   0.200E-02    0.161E-02
DAV:   6    -0.156023488957E+04    0.14763E-04   -0.63804E-05 12640   0.139E-02    0.897E-03
DAV:   7    -0.156023488583E+04    0.37372E-05   -0.17080E-05  6776   0.794E-03
   9 F= -.15602349E+04 E0= -.15602522E+04  d E =-.246519E-02
       N       E                     dE             d eps       ncg     rms          rms(c)
DAV:   1    -0.156023612524E+04   -0.12357E-02   -0.10479E-01 11338   0.434E-01    0.550E-02
DAV:   2    -0.156023624353E+04   -0.11830E-03   -0.13627E-03 17056   0.523E-02    0.489E-02
DAV:   3    -0.156023614988E+04    0.93658E-04   -0.44193E-04 17992   0.346E-02    0.303E-02
DAV:   4    -0.156023614564E+04    0.42397E-05   -0.11425E-04 13904   0.155E-02    0.152E-02
DAV:   5    -0.156023615195E+04   -0.63160E-05   -0.49368E-05 10224   0.120E-02
  10 F= -.15602362E+04 E0= -.15602535E+04  d E =-.126612E-02
       N       E                     dE             d eps       ncg     rms          rms(c)
DAV:   1    -0.156023710967E+04   -0.96403E-03   -0.53799E-02 11344   0.312E-01    0.486E-02
DAV:   2    -0.156023711458E+04   -0.49052E-05   -0.98522E-04 17736   0.492E-02    0.421E-02
DAV:   3    -0.156023702048E+04    0.94096E-04   -0.40781E-04 17920   0.336E-02    0.247E-02
DAV:   4    -0.156023698902E+04    0.31464E-04   -0.92242E-05 13688   0.138E-02    0.156E-02
DAV:   5    -0.156023696666E+04    0.22356E-04   -0.41344E-05  9048   0.110E-02    0.718E-03
DAV:   6    -0.156023696061E+04    0.60459E-05   -0.12276E-05  6520   0.751E-03
  11 F= -.15602370E+04 E0= -.15602542E+04  d E =-.808660E-03
       N       E                     dE             d eps       ncg     rms          rms(c)
DAV:   1    -0.156023769701E+04   -0.73035E-03   -0.69235E-02 11314   0.347E-01    0.348E-02
DAV:   2    -0.156023778843E+04   -0.91425E-04   -0.79140E-04 17168   0.395E-02    0.355E-02
DAV:   3    -0.156023773508E+04    0.53347E-04   -0.20976E-04 16664   0.244E-02    0.215E-02
DAV:   4    -0.156023773485E+04    0.23602E-06   -0.52350E-05 10688   0.107E-02    0.113E-02
DAV:   5    -0.156023773683E+04   -0.19806E-05   -0.20519E-05  7064   0.865E-03
  12 F= -.15602377E+04 E0= -.15602550E+04  d E =-.776215E-03
       N       E                     dE             d eps       ncg     rms          rms(c)
DAV:   1    -0.156023826872E+04   -0.53387E-03   -0.43453E-02 11338   0.276E-01    0.332E-02
DAV:   2    -0.156023828847E+04   -0.19754E-04   -0.59638E-04 17344   0.359E-02    0.303E-02
DAV:   3    -0.156023824258E+04    0.45893E-04   -0.18877E-04 16528   0.235E-02    0.183E-02
DAV:   4    -0.156023822689E+04    0.15683E-04   -0.39464E-05  9080   0.971E-03    0.117E-02
DAV:   5    -0.156023821400E+04    0.12898E-04   -0.19447E-05  6512   0.773E-03    0.486E-03
DAV:   6    -0.156023821109E+04    0.29060E-05   -0.60885E-06  6368   0.545E-03
  13 F= -.15602382E+04 E0= -.15602554E+04  d E =-.474261E-03
       N       E                     dE             d eps       ncg     rms          rms(c)
DAV:   1    -0.156023852208E+04   -0.30808E-03   -0.18691E-02 11341   0.182E-01    0.219E-02
DAV:   2    -0.156023854042E+04   -0.18345E-04   -0.18665E-04 16328   0.175E-02    0.158E-02
DAV:   3    -0.156023853807E+04    0.23536E-05   -0.26622E-05  8375   0.100E-02    0.121E-02
DAV:   4    -0.156023854326E+04   -0.51897E-05   -0.15407E-05  6496   0.725E-03    0.517E-03
DAV:   5    -0.156023854798E+04   -0.47179E-05   -0.66899E-06  6176   0.526E-03
  14 F= -.15602385E+04 E0= -.15602558E+04  d E =-.336887E-03
       N       E                     dE             d eps       ncg     rms          rms(c)
DAV:   1    -0.156023892024E+04   -0.37698E-03   -0.30960E-02 11326   0.231E-01    0.235E-02
DAV:   2    -0.156023893832E+04   -0.18081E-04   -0.32970E-04 17104   0.258E-02    0.220E-02
DAV:   3    -0.156023891739E+04    0.20934E-04   -0.77860E-05 13592   0.158E-02    0.143E-02
DAV:   4    -0.156023890885E+04    0.85391E-05   -0.20196E-05  6728   0.757E-03    0.829E-03
DAV:   5    -0.156023890241E+04    0.64425E-05   -0.10903E-05  6264   0.658E-03
  15 F= -.15602389E+04 E0= -.15602561E+04  d E =-.354429E-03
       N       E                     dE             d eps       ncg     rms          rms(c)
DAV:   1    -0.156023922498E+04   -0.31613E-03   -0.34370E-02 11320   0.244E-01    0.223E-02
DAV:   2    -0.156023925533E+04   -0.30350E-04   -0.31043E-04 16440   0.224E-02    0.188E-02
DAV:   3    -0.156023924819E+04    0.71389E-05   -0.34125E-05  8951   0.112E-02    0.143E-02
DAV:   4    -0.156023925120E+04   -0.30090E-05   -0.23349E-05  6488   0.776E-03    0.428E-03
DAV:   5    -0.156023925284E+04   -0.16451E-05   -0.70576E-06  6192   0.577E-03
  16 F= -.15602393E+04 E0= -.15602565E+04  d E =-.350437E-03
       N       E                     dE             d eps       ncg     rms          rms(c)
DAV:   1    -0.156023942180E+04   -0.17060E-03   -0.79626E-03 11344   0.120E-01    0.165E-02
DAV:   2    -0.156023940919E+04    0.12612E-04   -0.96386E-05 14496   0.144E-02    0.118E-02
DAV:   3    -0.156023940170E+04    0.74815E-05   -0.23844E-05  7901   0.993E-03    0.830E-03
DAV:   4    -0.156023939482E+04    0.68843E-05   -0.10023E-05  6160   0.586E-03    0.490E-03
DAV:   5    -0.156023938859E+04    0.62316E-05   -0.57931E-06  6080   0.432E-03
  17 F= -.15602394E+04 E0= -.15602565E+04  d E =-.135745E-03
       N       E                     dE             d eps       ncg     rms          rms(c)
DAV:   1    -0.156023959407E+04   -0.19926E-03   -0.16754E-02 11326   0.170E-01    0.162E-02
DAV:   2    -0.156023960911E+04   -0.15034E-04   -0.14728E-04 15808   0.152E-02    0.129E-02
DAV:   3    -0.156023960754E+04    0.15733E-05   -0.12781E-05  7162   0.725E-03    0.102E-02
DAV:   4    -0.156023961081E+04   -0.32796E-05   -0.11343E-05  6128   0.576E-03    0.285E-03
DAV:   5    -0.156023961190E+04   -0.10877E-05   -0.35520E-06  6080   0.419E-03
  18 F= -.15602396E+04 E0= -.15602568E+04  d E =-.223315E-03
       N       E                     dE             d eps       ncg     rms          rms(c)
DAV:   1    -0.156023983862E+04   -0.22781E-03   -0.23581E-02 11320   0.201E-01    0.186E-02
DAV:   2    -0.156023984643E+04   -0.78065E-05   -0.21336E-04 16376   0.187E-02    0.151E-02
DAV:   3    -0.156023984043E+04    0.60008E-05   -0.20206E-05  7709   0.933E-03    0.117E-02
DAV:   4    -0.156023983404E+04    0.63877E-05   -0.13821E-05  6264   0.633E-03    0.574E-03
DAV:   5    -0.156023983059E+04    0.34500E-05   -0.70382E-06  6096   0.532E-03
  19 F= -.15602398E+04 E0= -.15602570E+04  d E =-.218690E-03
       N       E                     dE             d eps       ncg     rms          rms(c)
DAV:   1    -0.156023993344E+04   -0.99398E-04   -0.64962E-03 11338   0.107E-01    0.120E-02
DAV:   2    -0.156023994291E+04   -0.94674E-05   -0.55753E-05 11240   0.102E-02    0.845E-03
DAV:   3    -0.156023994404E+04   -0.11353E-05   -0.11421E-05  6647   0.632E-03    0.653E-03
DAV:   4    -0.156023994822E+04   -0.41782E-05   -0.54273E-06  6080   0.419E-03    0.275E-03
DAV:   5    -0.156023995096E+04   -0.27390E-05   -0.26331E-06  6056   0.309E-03
  20 F= -.15602400E+04 E0= -.15602571E+04  d E =-.120368E-03
       N       E                     dE             d eps       ncg     rms          rms(c)
DAV:   1    -0.156024008690E+04   -0.13868E-03   -0.92802E-03 11332   0.127E-01    0.134E-02
DAV:   2    -0.156024008390E+04    0.29993E-05   -0.90642E-05 14576   0.122E-02    0.100E-02
DAV:   3    -0.156024008046E+04    0.34437E-05   -0.11768E-05  6885   0.694E-03    0.781E-03
DAV:   4    -0.156024007578E+04    0.46751E-05   -0.63449E-06  6056   0.461E-03    0.433E-03
DAV:   5    -0.156024007205E+04    0.37360E-05   -0.36394E-06  6032   0.365E-03
  21 F= -.15602401E+04 E0= -.15602572E+04  d E =-.121088E-03
       N       E                     dE             d eps       ncg     rms          rms(c)
DAV:   1    -0.156024019941E+04   -0.12363E-03   -0.11748E-02 11320   0.142E-01    0.126E-02
DAV:   2    -0.156024020941E+04   -0.99996E-05   -0.10149E-04 15224   0.124E-02    0.101E-02
DAV:   3    -0.156024020883E+04    0.58037E-06   -0.74278E-06  6442   0.539E-03    0.810E-03
DAV:   4    -0.156024021055E+04   -0.17158E-05   -0.71901E-06  6056   0.452E-03    0.214E-03
DAV:   5    -0.156024021104E+04   -0.49367E-06   -0.21242E-06  6008   0.323E-03
  22 F= -.15602402E+04 E0= -.15602574E+04  d E =-.138993E-03
       N       E                     dE             d eps       ncg     rms          rms(c)
DAV:   1    -0.156024034265E+04   -0.13210E-03   -0.13295E-02 11320   0.152E-01    0.147E-02
DAV:   2    -0.156024034196E+04    0.68653E-06   -0.12195E-04 15640   0.140E-02    0.111E-02
DAV:   3    -0.156024033838E+04    0.35822E-05   -0.11660E-05  7045   0.701E-03    0.873E-03
DAV:   4    -0.156024033332E+04    0.50643E-05   -0.72085E-06  6080   0.505E-03    0.470E-03
DAV:   5    -0.156024032954E+04    0.37776E-05   -0.42360E-06  6008   0.398E-03
  23 F= -.15602403E+04 E0= -.15602575E+04  d E =-.118497E-03
       N       E                     dE             d eps       ncg     rms          rms(c)
DAV:   1    -0.156024037198E+04   -0.38661E-04   -0.17532E-03 11338   0.566E-02    0.788E-03
DAV:   2    -0.156024037747E+04   -0.54881E-05   -0.12660E-05  5992   0.583E-03    0.499E-03
DAV:   3    -0.156024037907E+04   -0.16028E-05   -0.48819E-06  5927   0.437E-03    0.389E-03
DAV:   4    -0.156024038239E+04   -0.33206E-05   -0.29423E-06  5912   0.310E-03    0.157E-03
DAV:   5    -0.156024038419E+04   -0.18015E-05   -0.15911E-06  5912   0.215E-03
  24 F= -.15602404E+04 E0= -.15602576E+04  d E =-.546517E-04
       N       E                     dE             d eps       ncg     rms          rms(c)
DAV:   1    -0.156024048024E+04   -0.97852E-04   -0.85145E-03 11332   0.121E-01    0.114E-02
DAV:   2    -0.156024048114E+04   -0.90124E-06   -0.76841E-05 13760   0.108E-02    0.871E-03
DAV:   3    -0.156024047944E+04    0.17031E-05   -0.76114E-06  6384   0.524E-03    0.678E-03
DAV:   4    -0.156024047637E+04    0.30713E-05   -0.44596E-06  5984   0.409E-03    0.315E-03
DAV:   5    -0.156024047473E+04    0.16417E-05   -0.23279E-06  5960   0.314E-03
  25 F= -.15602405E+04 E0= -.15602576E+04  d E =-.905354E-04
       N       E                     dE             d eps       ncg     rms          rms(c)
DAV:   1    -0.156024054677E+04   -0.70399E-04   -0.66363E-03 11320   0.107E-01    0.951E-03
DAV:   2    -0.156024055322E+04   -0.64492E-05   -0.51868E-05 11080   0.921E-03    0.734E-03
DAV:   3    -0.156024055406E+04   -0.84041E-06   -0.79094E-06  6103   0.495E-03    0.567E-03
DAV:   4    -0.156024055627E+04   -0.22126E-05   -0.43124E-06  5912   0.363E-03    0.161E-03
DAV:   5    -0.156024055696E+04   -0.69540E-06   -0.17657E-06  5888   0.255E-03
  26 F= -.15602406E+04 E0= -.15602577E+04  d E =-.822383E-04
       N       E                     dE             d eps       ncg     rms          rms(c)
DAV:   1    -0.156024061657E+04   -0.60303E-04   -0.39206E-03 11332   0.825E-02    0.883E-03
DAV:   2    -0.156024061131E+04    0.52644E-05   -0.24984E-05  7512   0.788E-03    0.596E-03
DAV:   3    -0.156024060996E+04    0.13522E-05   -0.93776E-06  6152   0.543E-03    0.459E-03
DAV:   4    -0.156024060699E+04    0.29684E-05   -0.49827E-06  5864   0.391E-03    0.236E-03
DAV:   5    -0.156024060529E+04    0.17008E-05   -0.30338E-06  5856   0.287E-03
  27 F= -.15602406E+04 E0= -.15602578E+04  d E =-.483221E-04
       N       E                     dE             d eps       ncg     rms          rms(c)
DAV:   1    -0.156024064962E+04   -0.42634E-04   -0.32183E-03 11332   0.746E-02    0.784E-03
DAV:   2    -0.156024065416E+04   -0.45414E-05   -0.21565E-05  7304   0.699E-03    0.550E-03
DAV:   3    -0.156024065577E+04   -0.16076E-05   -0.81790E-06  5973   0.461E-03    0.420E-03
DAV:   4    -0.156024065818E+04   -0.24123E-05   -0.47769E-06  5816   0.357E-03    0.171E-03
DAV:   5    -0.156024065948E+04   -0.12954E-05   -0.26919E-06  5816   0.267E-03
  28 F= -.15602407E+04 E0= -.15602578E+04  d E =-.541915E-04
       N       E                     dE             d eps       ncg     rms          rms(c)
DAV:   1    -0.156024071101E+04   -0.52827E-04   -0.38177E-03 11326   0.809E-02    0.785E-03
DAV:   2    -0.156024070897E+04    0.20351E-05   -0.25530E-05  7984   0.761E-03    0.565E-03
DAV:   3    -0.156024070834E+04    0.63753E-06   -0.89286E-06  6034   0.492E-03    0.424E-03
DAV:   4    -0.156024070643E+04    0.19054E-05   -0.50245E-06  5831   0.385E-03    0.198E-03
DAV:   5    -0.156024070562E+04    0.80932E-06   -0.29794E-06  5831   0.295E-03
  29 F= -.15602407E+04 E0= -.15602579E+04  d E =-.461442E-04
       N       E                     dE             d eps       ncg     rms          rms(c)
DAV:   1    -0.156024074729E+04   -0.40863E-04   -0.36517E-03 11326   0.791E-02    0.740E-03
DAV:   2    -0.156024075109E+04   -0.37964E-05   -0.23344E-05  7463   0.723E-03    0.542E-03
DAV:   3    -0.156024075252E+04   -0.14286E-05   -0.86842E-06  5951   0.456E-03    0.400E-03
DAV:   4    -0.156024075456E+04   -0.20368E-05   -0.52530E-06  5807   0.374E-03    0.125E-03
DAV:   5    -0.156024075522E+04   -0.66147E-06   -0.28321E-06  5783   0.277E-03
  30 F= -.15602408E+04 E0= -.15602579E+04  d E =-.495952E-04
       N       E                     dE             d eps       ncg     rms          rms(c)
DAV:   1    -0.156024078967E+04   -0.35110E-04   -0.19789E-03 11332   0.585E-02    0.635E-03
DAV:   2    -0.156024078625E+04    0.34125E-05   -0.14458E-05  5999   0.597E-03    0.428E-03
DAV:   3    -0.156024078532E+04    0.93363E-06   -0.58825E-06  5820   0.425E-03    0.324E-03
DAV:   4    -0.156024078356E+04    0.17593E-05   -0.32087E-06  5774   0.315E-03    0.175E-03
DAV:   5    -0.156024078241E+04    0.11538E-05   -0.20106E-06  5774   0.242E-03
  31 F= -.15602408E+04 E0= -.15602579E+04  d E =-.271894E-04
       N       E                     dE             d eps       ncg     rms          rms(c)
DAV:   1    -0.156024081153E+04   -0.27966E-04   -0.21424E-03 11332   0.606E-02    0.573E-03
DAV:   2    -0.156024081414E+04   -0.26181E-05   -0.13642E-05  6975   0.560E-03    0.423E-03
DAV:   3    -0.156024081505E+04   -0.90929E-06   -0.53398E-06  5903   0.360E-03    0.320E-03
DAV:   4    -0.156024081671E+04   -0.16590E-05   -0.33574E-06  5774   0.292E-03    0.915E-04
DAV:   5    -0.156024081714E+04   -0.42579E-06   -0.17840E-06  5774   0.221E-03
  32 F= -.15602408E+04 E0= -.15602580E+04  d E =-.347320E-04
       N       E                     dE             d eps       ncg     rms          rms(c)
DAV:   1    -0.156024085755E+04   -0.40836E-04   -0.39742E-03 11314   0.825E-02    0.760E-03
DAV:   2    -0.156024085635E+04    0.12038E-05   -0.25690E-05  8152   0.751E-03    0.554E-03
DAV:   3    -0.156024085573E+04    0.61651E-06   -0.85896E-06  6031   0.463E-03    0.390E-03
DAV:   4    -0.156024085425E+04    0.14785E-05   -0.48355E-06  5855   0.381E-03    0.171E-03
DAV:   5    -0.156024085380E+04    0.45299E-06   -0.27977E-06  5828   0.289E-03
  33 F= -.15602409E+04 E0= -.15602580E+04  d E =-.366589E-04
       N       E                     dE             d eps       ncg     rms          rms(c)
DAV:   1    -0.156024086866E+04   -0.14406E-04   -0.91505E-04 11332   0.401E-02    0.497E-03
DAV:   2    -0.156024087207E+04   -0.34131E-05   -0.77273E-06  5741   0.429E-03    0.316E-03
DAV:   3    -0.156024087348E+04   -0.14074E-05   -0.33336E-06  5738   0.317E-03    0.239E-03
DAV:   4    -0.156024087498E+04   -0.15031E-05   -0.18144E-06  5741   0.233E-03    0.124E-03
DAV:   5    -0.156024087617E+04   -0.11860E-05   -0.11203E-06  5741   0.175E-03
  34 F= -.15602409E+04 E0= -.15602580E+04  d E =-.223688E-04
       N       E                     dE             d eps       ncg     rms          rms(c)
DAV:   1    -0.156024090130E+04   -0.26324E-04   -0.15672E-03 11326   0.519E-02    0.514E-03
DAV:   2    -0.156024089956E+04    0.17475E-05   -0.99242E-06  6029   0.484E-03    0.362E-03
DAV:   3    -0.156024089888E+04    0.67762E-06   -0.39182E-06  5810   0.313E-03    0.255E-03
DAV:   4    -0.156024089780E+04    0.10816E-05   -0.21801E-06  5765   0.252E-03    0.128E-03
DAV:   5    -0.156024089726E+04    0.53798E-06   -0.13190E-06  5762   0.195E-03
  35 F= -.15602409E+04 E0= -.15602581E+04  d E =-.210934E-04
       N       E                     dE             d eps       ncg     rms          rms(c)
DAV:   1    -0.156024092701E+04   -0.29212E-04   -0.36209E-03 11308   0.787E-02    0.694E-03
DAV:   2    -0.156024092930E+04   -0.22890E-05   -0.21204E-05  7872   0.690E-03    0.519E-03
DAV:   3    -0.156024093026E+04   -0.95841E-06   -0.78655E-06  6031   0.418E-03    0.342E-03
DAV:   4    -0.156024093128E+04   -0.10238E-05   -0.47454E-06  5807   0.361E-03    0.102E-03
DAV:   5    -0.156024093146E+04   -0.17723E-06   -0.24554E-06  5807   0.257E-03
  36 F= -.15602409E+04 E0= -.15602581E+04  d E =-.341981E-04
       N       E                     dE             d eps       ncg     rms          rms(c)
DAV:   1    -0.156024095307E+04   -0.21788E-04   -0.14074E-03 11326   0.498E-02    0.626E-03
DAV:   2    -0.156024094816E+04    0.49126E-05   -0.11566E-05  5774   0.543E-03    0.385E-03
DAV:   3    -0.156024094667E+04    0.14872E-05   -0.48031E-06  5750   0.405E-03    0.288E-03
DAV:   4    -0.156024094486E+04    0.18041E-05   -0.24782E-06  5750   0.290E-03    0.168E-03
DAV:   5    -0.156024094341E+04    0.14524E-05   -0.15892E-06  5750   0.217E-03
  37 F= -.15602409E+04 E0= -.15602581E+04  d E =-.119546E-04
       N       E                     dE             d eps       ncg     rms          rms(c)
DAV:   1    -0.156024095209E+04   -0.72300E-05   -0.43337E-04 11332   0.279E-02    0.402E-03
DAV:   2    -0.156024095489E+04   -0.27968E-05   -0.40561E-06  5723   0.316E-03    0.253E-03
DAV:   3    -0.156024095583E+04   -0.94360E-06   -0.18150E-06  5720   0.249E-03    0.198E-03
DAV:   4    -0.156024095718E+04   -0.13489E-05   -0.98850E-07  5723   0.173E-03    0.967E-04
DAV:   5    -0.156024095821E+04   -0.10250E-05   -0.60390E-07  5723   0.129E-03
  38 F= -.15602410E+04 E0= -.15602581E+04  d E =-.147967E-04
       N       E                     dE             d eps       ncg     rms          rms(c)
DAV:   1    -0.156024097819E+04   -0.21005E-04   -0.19809E-03 11308   0.582E-02    0.518E-03
DAV:   2    -0.156024097857E+04   -0.38128E-06   -0.11211E-05  6620   0.510E-03    0.388E-03
DAV:   3    -0.156024097866E+04   -0.85000E-07   -0.42347E-06  5883   0.308E-03    0.263E-03
DAV:   4    -0.156024097851E+04    0.14190E-06   -0.25855E-06  5756   0.269E-03    0.864E-04
DAV:   5    -0.156024097858E+04   -0.65043E-07   -0.13643E-06  5756   0.199E-03
  39 F= -.15602410E+04 E0= -.15602581E+04  d E =-.203698E-04
       N       E                     dE             d eps       ncg     rms          rms(c)
DAV:   1    -0.156024105249E+04   -0.73980E-04   -0.91418E-02 11284   0.396E-01    0.341E-02
DAV:   2    -0.156024109973E+04   -0.47233E-04   -0.76916E-04 16696   0.331E-02    0.265E-02
DAV:   3    -0.156024108869E+04    0.11037E-04   -0.58782E-05 11440   0.117E-02    0.165E-02
DAV:   4    -0.156024108128E+04    0.74145E-05   -0.36535E-05  9008   0.116E-02    0.687E-03
DAV:   5    -0.156024107853E+04    0.27424E-05   -0.11512E-05  7000   0.821E-03
  40 F= -.15602411E+04 E0= -.15602582E+04  d E =-.999544E-04
       N       E                     dE             d eps       ncg     rms          rms(c)
DAV:   1    -0.156024109164E+04   -0.10364E-04   -0.27369E-02 11284   0.216E-01    0.179E-02
DAV:   2    -0.156024110822E+04   -0.16578E-04   -0.23814E-04 16536   0.182E-02    0.141E-02
DAV:   3    -0.156024110542E+04    0.28007E-05   -0.11977E-05  6906   0.627E-03    0.948E-03
DAV:   4    -0.156024110377E+04    0.16505E-05   -0.10712E-05  6464   0.659E-03    0.398E-03
DAV:   5    -0.156024110296E+04    0.80304E-06   -0.39480E-06  6112   0.494E-03
  41 F= -.15602411E+04 E0= -.15602582E+04  d E =-.244306E-04
       N       E                     dE             d eps       ncg     rms          rms(c)
DAV:   1    -0.156024110428E+04   -0.51627E-06   -0.94785E-03 11296   0.127E-01    0.105E-02
DAV:   2    -0.156024110923E+04   -0.49494E-05   -0.82881E-05 14328   0.110E-02    0.838E-03
DAV:   3    -0.156024110830E+04    0.93265E-06   -0.63934E-06  6130   0.454E-03    0.633E-03
DAV:   4    -0.156024110710E+04    0.11951E-05   -0.41727E-06  6032   0.394E-03    0.287E-03
DAV:   5    -0.156024110653E+04    0.57835E-06   -0.20906E-06  6008   0.322E-03
  42 F= -.15602411E+04 E0= -.15602582E+04  d E =-.356264E-05
