       N       E                     dE             d eps       ncg     rms          rms(c)
DAV:   1     0.230846974046E+04    0.23085E+04   -0.29624E+05  8472   0.143E+03
DAV:   2    -0.120167672280E+04   -0.35101E+04   -0.33662E+04  9796   0.308E+02
DAV:   3    -0.164467990456E+04   -0.44300E+03   -0.41148E+03 12968   0.816E+01
DAV:   4    -0.166925118897E+04   -0.24571E+02   -0.23074E+02 11784   0.176E+01
DAV:   5    -0.167030983328E+04   -0.10586E+01   -0.10405E+01 13096   0.408E+00    0.414E+01
DAV:   6    -0.162265181227E+04    0.47658E+02   -0.75633E+01 12808   0.107E+01    0.218E+01
DAV:   7    -0.160711870425E+04    0.15533E+02   -0.60144E+01 11872   0.990E+00    0.113E+01
DAV:   8    -0.160205809474E+04    0.50606E+01   -0.27045E+01 13168   0.924E+00    0.528E+00
DAV:   9    -0.160048300148E+04    0.15751E+01   -0.83782E+00 13072   0.477E+00    0.183E+00
DAV:  10    -0.160051769863E+04   -0.34697E-01   -0.14345E+00 11392   0.168E+00    0.139E+00
DAV:  11    -0.160049683352E+04    0.20865E-01   -0.33705E-01 11200   0.790E-01    0.593E-01
DAV:  12    -0.160048491210E+04    0.11921E-01   -0.66113E-02 11352   0.389E-01    0.264E-01
DAV:  13    -0.160048347410E+04    0.14380E-02   -0.16629E-02 11816   0.205E-01    0.130E-01
DAV:  14    -0.160048278574E+04    0.68836E-03   -0.54828E-03 11096   0.126E-01    0.621E-02
DAV:  15    -0.160048276818E+04    0.17569E-04   -0.14539E-03 11952   0.508E-02    0.384E-02
DAV:  16    -0.160048271992E+04    0.48253E-04   -0.23911E-04 11896   0.236E-02    0.168E-02
DAV:  17    -0.160048270877E+04    0.11153E-04   -0.56476E-05  8872   0.127E-02    0.909E-03
DAV:  18    -0.160048270510E+04    0.36748E-05   -0.18621E-05  5584   0.812E-03
   1 F= -.16004827E+04 E0= -.16004664E+04  d E =-.160048E+04
       N       E                     dE             d eps       ncg     rms          rms(c)
DAV:   1    -0.160580054700E+04   -0.53178E+01   -0.11919E+03  8440   0.505E+01    0.180E+01
DAV:   2    -0.159157691492E+04    0.14224E+02   -0.64888E+01 13376   0.939E+00    0.862E+00
DAV:   3    -0.158847314921E+04    0.31038E+01   -0.24318E+01 12532   0.531E+00    0.547E+00
DAV:   4    -0.158758367834E+04    0.88947E+00   -0.75915E+00 13016   0.427E+00    0.313E+00
DAV:   5    -0.158692390892E+04    0.65977E+00   -0.31430E+00 12936   0.290E+00    0.122E+00
DAV:   6    -0.158692054277E+04    0.33662E-02   -0.54676E-01 12000   0.985E-01    0.927E-01
DAV:   7    -0.158691111144E+04    0.94313E-02   -0.18457E-01 12440   0.474E-01    0.334E-01
DAV:   8    -0.158691696888E+04   -0.58574E-02   -0.32430E-02 13096   0.230E-01    0.279E-01
DAV:   9    -0.158691589599E+04    0.10729E-02   -0.12015E-02 12416   0.185E-01    0.171E-01
DAV:  10    -0.158691507477E+04    0.82121E-03   -0.81468E-03 13336   0.107E-01    0.485E-02
DAV:  11    -0.158691518789E+04   -0.11311E-03   -0.87850E-04 11112   0.413E-02    0.309E-02
DAV:  12    -0.158691520616E+04   -0.18269E-04   -0.19841E-04 11768   0.221E-02    0.247E-02
DAV:  13    -0.158691520502E+04    0.11380E-05   -0.94573E-05 10248   0.151E-02
   2 F= -.15869152E+04 E0= -.15869153E+04  d E =0.135675E+02
       N       E                     dE             d eps       ncg     rms          rms(c)
DAV:   1    -0.161430276994E+04   -0.27388E+02   -0.47640E+02  8440   0.359E+01    0.124E+01
DAV:   2    -0.160714924008E+04    0.71535E+01   -0.17527E+01 11364   0.576E+00    0.534E+00
DAV:   3    -0.160576682739E+04    0.13824E+01   -0.44321E+00 11576   0.265E+00    0.298E+00
DAV:   4    -0.160547396618E+04    0.29286E+00   -0.23025E+00 12816   0.263E+00    0.181E+00
DAV:   5    -0.160524489822E+04    0.22907E+00   -0.10871E+00 12704   0.179E+00    0.472E-01
DAV:   6    -0.160525548009E+04   -0.10582E-01   -0.15488E-01 10552   0.571E-01    0.399E-01
DAV:   7    -0.160525930876E+04   -0.38287E-02   -0.27698E-02 11760   0.220E-01    0.203E-01
DAV:   8    -0.160526421605E+04   -0.49073E-02   -0.13225E-02 12280   0.147E-01    0.143E-01
DAV:   9    -0.160526431053E+04   -0.94482E-04   -0.43053E-03 11968   0.106E-01    0.569E-02
DAV:  10    -0.160526456660E+04   -0.25607E-03   -0.20618E-03 12600   0.575E-02    0.395E-02
DAV:  11    -0.160526466691E+04   -0.10030E-03   -0.25291E-04 10896   0.254E-02    0.239E-02
DAV:  12    -0.160526468793E+04   -0.21028E-04   -0.14986E-04 12176   0.156E-02    0.824E-03
DAV:  13    -0.160526468720E+04    0.73114E-06   -0.22504E-05  5440   0.786E-03
   3 F= -.16052647E+04 E0= -.16052386E+04  d E =-.183495E+02
       N       E                     dE             d eps       ncg     rms          rms(c)
DAV:   1    -0.160531288958E+04   -0.48202E-01   -0.64925E+00  8504   0.337E+00    0.686E-01
DAV:   2    -0.160530805948E+04    0.48301E-02   -0.16655E-01 12776   0.482E-01    0.365E-01
DAV:   3    -0.160530520218E+04    0.28573E-02   -0.28995E-02 12536   0.237E-01    0.249E-01
DAV:   4    -0.160530376609E+04    0.14361E-02   -0.10687E-02 13088   0.184E-01    0.157E-01
DAV:   5    -0.160530277689E+04    0.98920E-03   -0.51665E-03 12264   0.113E-01    0.436E-02
DAV:   6    -0.160530278668E+04   -0.97965E-05   -0.10969E-03 11744   0.484E-02    0.307E-02
DAV:   7    -0.160530278085E+04    0.58305E-05   -0.18530E-04 10528   0.207E-02    0.191E-02
DAV:   8    -0.160530277737E+04    0.34796E-05   -0.46693E-05  8000   0.124E-02
   4 F= -.16053028E+04 E0= -.16052788E+04  d E =-.380902E-01
       N       E                     dE             d eps       ncg     rms          rms(c)
DAV:   1    -0.160530543527E+04   -0.26544E-02   -0.34917E-01  8616   0.771E-01    0.141E-01
DAV:   2    -0.160530543653E+04   -0.12538E-05   -0.76482E-03 12648   0.118E-01    0.867E-02
DAV:   3    -0.160530520981E+04    0.22672E-03   -0.20581E-03 13528   0.761E-02    0.632E-02
DAV:   4    -0.160530508033E+04    0.12948E-03   -0.61353E-04 13288   0.406E-02    0.358E-02
DAV:   5    -0.160530503767E+04    0.42654E-04   -0.30015E-04 11840   0.262E-02    0.125E-02
DAV:   6    -0.160530503454E+04    0.31338E-05   -0.65534E-05  9608   0.135E-02
   5 F= -.16053050E+04 E0= -.16052810E+04  d E =-.225716E-02
       N       E                     dE             d eps       ncg     rms          rms(c)
DAV:   1    -0.160530553955E+04   -0.50187E-03   -0.80809E-02  8640   0.370E-01    0.525E-02
DAV:   2    -0.160530560909E+04   -0.69542E-04   -0.13455E-03 12824   0.550E-02    0.406E-02
DAV:   3    -0.160530554308E+04    0.66010E-04   -0.38937E-04 13360   0.345E-02    0.275E-02
DAV:   4    -0.160530552605E+04    0.17025E-04   -0.90381E-05 10624   0.153E-02    0.143E-02
DAV:   5    -0.160530551940E+04    0.66507E-05   -0.42192E-05  7536   0.109E-02
   6 F= -.16053055E+04 E0= -.16052814E+04  d E =-.484864E-03
       N       E                     dE             d eps       ncg     rms          rms(c)
DAV:   1    -0.160530573127E+04   -0.20522E-03   -0.42186E-02  8608   0.265E-01    0.351E-02
DAV:   2    -0.160530576061E+04   -0.29343E-04   -0.59729E-04 12640   0.356E-02    0.270E-02
DAV:   3    -0.160530573357E+04    0.27038E-04   -0.15066E-04 12232   0.220E-02    0.188E-02
DAV:   4    -0.160530572397E+04    0.96010E-05   -0.42105E-05  7616   0.105E-02    0.845E-03
DAV:   5    -0.160530572098E+04    0.29970E-05   -0.14442E-05  5040   0.755E-03
   7 F= -.16053057E+04 E0= -.16052816E+04  d E =-.201573E-03
       N       E                     dE             d eps       ncg     rms          rms(c)
DAV:   1    -0.160530580763E+04   -0.83662E-04   -0.17115E-02  8608   0.168E-01    0.173E-02
DAV:   2    -0.160530582131E+04   -0.13676E-04   -0.16650E-04 12224   0.177E-02    0.136E-02
DAV:   3    -0.160530581723E+04    0.40793E-05   -0.18789E-05  6056   0.926E-03    0.104E-02
DAV:   4    -0.160530581778E+04   -0.54439E-06   -0.15933E-05  4760   0.635E-03    0.349E-03
DAV:   5    -0.160530581821E+04   -0.43804E-06   -0.49437E-06  4632   0.523E-03
   8 F= -.16053058E+04 E0= -.16052817E+04  d E =-.972380E-04
       N       E                     dE             d eps       ncg     rms          rms(c)
DAV:   1    -0.160530587362E+04   -0.55846E-04   -0.68877E-03  8608   0.107E-01    0.124E-02
DAV:   2    -0.160530586877E+04    0.48555E-05   -0.62897E-05  9640   0.113E-02    0.859E-03
DAV:   3    -0.160530586572E+04    0.30429E-05   -0.11406E-05  5216   0.662E-03    0.640E-03
DAV:   4    -0.160530586071E+04    0.50165E-05   -0.47894E-06  4592   0.417E-03    0.255E-03
DAV:   5    -0.160530585866E+04    0.20469E-05   -0.22858E-06  4592   0.289E-03
   9 F= -.16053059E+04 E0= -.16052817E+04  d E =-.404465E-04
       N       E                     dE             d eps       ncg     rms          rms(c)
DAV:   1    -0.160530587016E+04   -0.94524E-05   -0.64172E-04  8624   0.340E-02    0.683E-03
DAV:   2    -0.160530587390E+04   -0.37379E-05   -0.74189E-06  4576   0.426E-03    0.353E-03
DAV:   3    -0.160530587578E+04   -0.18794E-05   -0.27368E-06  4544   0.336E-03    0.249E-03
DAV:   4    -0.160530587763E+04   -0.18526E-05   -0.13395E-06  4544   0.246E-03    0.109E-03
DAV:   5    -0.160530587883E+04   -0.12009E-05   -0.75004E-07  4544   0.156E-03
  10 F= -.16053059E+04 E0= -.16052817E+04  d E =-.201702E-04
       N       E                     dE             d eps       ncg     rms          rms(c)
DAV:   1    -0.160530590860E+04   -0.30967E-04   -0.27806E-03  8560   0.674E-02    0.696E-03
DAV:   2    -0.160530590735E+04    0.12447E-05   -0.16004E-05  5520   0.623E-03    0.488E-03
DAV:   3    -0.160530590610E+04    0.12550E-05   -0.56053E-06  4520   0.373E-03    0.250E-03
DAV:   4    -0.160530590517E+04    0.92978E-06   -0.29570E-06  4496   0.316E-03    0.674E-04
DAV:   5    -0.160530590530E+04   -0.13458E-06   -0.15461E-06  4480   0.211E-03
  11 F= -.16053059E+04 E0= -.16052818E+04  d E =-.264715E-04
       N       E                     dE             d eps       ncg     rms          rms(c)
DAV:   1    -0.160530592945E+04   -0.24279E-04   -0.38195E-03  8560   0.791E-02    0.858E-03
DAV:   2    -0.160530593358E+04   -0.41377E-05   -0.27716E-05  6760   0.763E-03    0.586E-03
DAV:   3    -0.160530593562E+04   -0.20337E-05   -0.71524E-06  4544   0.432E-03    0.277E-03
DAV:   4    -0.160530593709E+04   -0.14705E-05   -0.34567E-06  4496   0.360E-03    0.117E-03
DAV:   5    -0.160530593749E+04   -0.39980E-06   -0.18444E-06  4496   0.256E-03
  12 F= -.16053059E+04 E0= -.16052818E+04  d E =-.321858E-04
       N       E                     dE             d eps       ncg     rms          rms(c)
DAV:   1    -0.160530594475E+04   -0.76624E-05   -0.68515E-05  8360   0.132E-02    0.469E-03
DAV:   2    -0.160530593961E+04    0.51418E-05   -0.24196E-06  4488   0.236E-03    0.192E-03
DAV:   3    -0.160530593702E+04    0.25890E-05   -0.84850E-07  4472   0.163E-03    0.843E-04
DAV:   4    -0.160530593543E+04    0.15897E-05   -0.38533E-07  4472   0.112E-03    0.399E-04
DAV:   5    -0.160530593514E+04    0.28755E-06   -0.16502E-07  4472   0.872E-04
  13 F= -.16053059E+04 E0= -.16052818E+04  d E =0.234558E-05
       N       E                     dE             d eps       ncg     rms          rms(c)
DAV:   1    -0.160530595323E+04   -0.17798E-04   -0.20304E-03  8560   0.575E-02    0.563E-03
DAV:   2    -0.160530595416E+04   -0.93084E-06   -0.10733E-05  4624   0.522E-03    0.405E-03
DAV:   3    -0.160530595452E+04   -0.35899E-06   -0.39114E-06  4472   0.309E-03    0.169E-03
DAV:   4    -0.160530595486E+04   -0.34316E-06   -0.20201E-06  4424   0.263E-03    0.590E-04
DAV:   5    -0.160530595490E+04   -0.38063E-07   -0.10642E-06  4424   0.178E-03
  14 F= -.16053060E+04 E0= -.16052818E+04  d E =-.197570E-04
       N       E                     dE             d eps       ncg     rms          rms(c)
DAV:   1    -0.160530599900E+04   -0.44136E-04   -0.18147E-02  8560   0.172E-01    0.170E-02
DAV:   2    -0.160530600485E+04   -0.58554E-05   -0.15724E-04 12088   0.158E-02    0.127E-02
DAV:   3    -0.160530599976E+04    0.50941E-05   -0.10430E-05  5312   0.599E-03    0.688E-03
DAV:   4    -0.160530599685E+04    0.29041E-05   -0.67921E-06  4800   0.604E-03    0.226E-03
DAV:   5    -0.160530599637E+04    0.48500E-06   -0.20773E-06  4472   0.354E-03
  15 F= -.16053060E+04 E0= -.16052819E+04  d E =-.414698E-04
       N       E                     dE             d eps       ncg     rms          rms(c)
DAV:   1    -0.160530596567E+04    0.31180E-04   -0.78616E-03  8560   0.114E-01    0.126E-02
DAV:   2    -0.160530597149E+04   -0.58125E-05   -0.56397E-05  8992   0.102E-02    0.866E-03
DAV:   3    -0.160530597313E+04   -0.16391E-05   -0.79556E-06  4448   0.496E-03    0.471E-03
DAV:   4    -0.160530597480E+04   -0.16787E-05   -0.33043E-06  4424   0.426E-03    0.191E-03
DAV:   5    -0.160530597557E+04   -0.76972E-06   -0.15197E-06  4424   0.271E-03
  16 F= -.16053060E+04 E0= -.16052818E+04  d E =0.207946E-04
       N       E                     dE             d eps       ncg     rms          rms(c)
DAV:   1    -0.160530599989E+04   -0.25087E-04   -0.49316E-03  8560   0.897E-02    0.870E-03
DAV:   2    -0.160530599978E+04    0.11304E-06   -0.25469E-05  5904   0.793E-03    0.626E-03
DAV:   3    -0.160530599859E+04    0.11865E-05   -0.70082E-06  4424   0.438E-03    0.290E-03
DAV:   4    -0.160530599799E+04    0.60016E-06   -0.34717E-06  4424   0.366E-03    0.891E-04
DAV:   5    -0.160530599814E+04   -0.14323E-06   -0.15995E-06  4416   0.230E-03
  17 F= -.16053060E+04 E0= -.16052819E+04  d E =-.225611E-04
       N       E                     dE             d eps       ncg     rms          rms(c)
DAV:   1    -0.160530602606E+04   -0.28067E-04   -0.18437E-02  8548   0.173E-01    0.167E-02
DAV:   2    -0.160530603650E+04   -0.10443E-04   -0.15860E-04 12080   0.158E-02    0.127E-02
DAV:   3    -0.160530603355E+04    0.29531E-05   -0.11110E-05  5224   0.616E-03    0.598E-03
DAV:   4    -0.160530603313E+04    0.41772E-06   -0.66453E-06  4720   0.608E-03    0.225E-03
DAV:   5    -0.160530603284E+04    0.29358E-06   -0.17695E-06  4416   0.331E-03
  18 F= -.16053060E+04 E0= -.16052819E+04  d E =-.347025E-04
       N       E                     dE             d eps       ncg     rms          rms(c)
DAV:   1    -0.160530603902E+04   -0.58886E-05   -0.17492E-04  8488   0.203E-02    0.637E-03
DAV:   2    -0.160530603141E+04    0.76053E-05   -0.41509E-06  4400   0.313E-03    0.271E-03
DAV:   3    -0.160530602804E+04    0.33771E-05   -0.15409E-06  4400   0.248E-03    0.148E-03
DAV:   4    -0.160530602663E+04    0.14092E-05   -0.64412E-07  4400   0.189E-03    0.751E-04
DAV:   5    -0.160530602523E+04    0.14029E-05   -0.34283E-07  4400   0.107E-03
  19 F= -.16053060E+04 E0= -.16052819E+04  d E =0.761227E-05
       N       E                     dE             d eps       ncg     rms          rms(c)
DAV:   1    -0.160530602801E+04   -0.13795E-05   -0.29856E-04  8520   0.236E-02    0.512E-03
DAV:   2    -0.160530603106E+04   -0.30492E-05   -0.32754E-06  4400   0.278E-03    0.245E-03
DAV:   3    -0.160530603343E+04   -0.23686E-05   -0.11918E-06  4400   0.179E-03    0.108E-03
DAV:   4    -0.160530603467E+04   -0.12405E-05   -0.48850E-07  4400   0.137E-03    0.649E-04
DAV:   5    -0.160530603532E+04   -0.65311E-06   -0.24219E-07  4400   0.104E-03
  20 F= -.16053060E+04 E0= -.16052819E+04  d E =-.100938E-04
       N       E                     dE             d eps       ncg     rms          rms(c)
DAV:   1    -0.160530603826E+04   -0.35934E-05   -0.28664E-04  8488   0.216E-02    0.220E-03
DAV:   2    -0.160530603820E+04    0.64339E-07   -0.17347E-06  4400   0.208E-03    0.158E-03
DAV:   3    -0.160530603809E+04    0.10549E-06   -0.67131E-07  4400   0.132E-03    0.819E-04
DAV:   4    -0.160530603799E+04    0.10282E-06   -0.38045E-07  4400   0.112E-03    0.217E-04
DAV:   5    -0.160530603802E+04   -0.30584E-07   -0.20161E-07  4400   0.750E-04
  21 F= -.16053060E+04 E0= -.16052819E+04  d E =-.269819E-05
       N       E                     dE             d eps       ncg     rms          rms(c)
DAV:   1    -0.160530604305E+04   -0.50601E-05   -0.36441E-03  8560   0.771E-02    0.766E-03
DAV:   2    -0.160530604545E+04   -0.23981E-05   -0.21001E-05  6032   0.709E-03    0.544E-03
DAV:   3    -0.160530604644E+04   -0.99637E-06   -0.65335E-06  4464   0.413E-03    0.259E-03
DAV:   4    -0.160530604730E+04   -0.85348E-06   -0.33828E-06  4400   0.350E-03    0.755E-04
DAV:   5    -0.160530604738E+04   -0.86313E-07   -0.17408E-06  4400   0.233E-03
  22 F= -.16053060E+04 E0= -.16052819E+04  d E =-.936385E-05
       N       E                     dE             d eps       ncg     rms          rms(c)
DAV:   1    -0.160530604691E+04    0.38197E-06   -0.11368E-03  8560   0.435E-02    0.500E-03
DAV:   2    -0.160530604400E+04    0.29164E-05   -0.52081E-06  4408   0.374E-03    0.318E-03
DAV:   3    -0.160530604208E+04    0.19119E-05   -0.15623E-06  4400   0.200E-03    0.157E-03
DAV:   4    -0.160530604118E+04    0.90814E-06   -0.67673E-07  4400   0.165E-03    0.734E-04
DAV:   5    -0.160530604086E+04    0.31962E-06   -0.32347E-07  4400   0.107E-03
  23 F= -.16053060E+04 E0= -.16052819E+04  d E =0.652431E-05
       N       E                     dE             d eps       ncg     rms          rms(c)
DAV:   1    -0.160530604387E+04   -0.26948E-05   -0.67891E-04  8560   0.333E-02    0.316E-03
DAV:   2    -0.160530604429E+04   -0.42166E-06   -0.30812E-06  4400   0.286E-03    0.226E-03
DAV:   3    -0.160530604449E+04   -0.20181E-06   -0.96068E-07  4400   0.156E-03    0.112E-03
DAV:   4    -0.160530604469E+04   -0.19050E-06   -0.50122E-07  4400   0.132E-03    0.304E-04
DAV:   5    -0.160530604468E+04    0.96757E-08   -0.23614E-07  4400   0.837E-04
  24 F= -.16053060E+04 E0= -.16052819E+04  d E =-.381873E-05
       N       E                     dE             d eps       ncg     rms          rms(c)
DAV:   1    -0.160530604802E+04   -0.33393E-05   -0.19893E-03  8560   0.569E-02    0.550E-03
DAV:   2    -0.160530604869E+04   -0.66406E-06   -0.10809E-05  4568   0.522E-03    0.397E-03
DAV:   3    -0.160530604879E+04   -0.99288E-07   -0.39944E-06  4400   0.308E-03    0.143E-03
DAV:   4    -0.160530604898E+04   -0.19239E-06   -0.19948E-06  4400   0.257E-03    0.600E-04
DAV:   5    -0.160530604904E+04   -0.55391E-07   -0.10711E-06  4400   0.180E-03
  25 F= -.16053060E+04 E0= -.16052819E+04  d E =-.436009E-05
