       N       E                     dE             d eps       ncg     rms          rms(c)
DAV:   1     0.205515628963E+04    0.20552E+04   -0.28284E+05 11368   0.143E+03
DAV:   2    -0.119019157501E+04   -0.32453E+04   -0.31181E+04 13164   0.280E+02
DAV:   3    -0.160012023914E+04   -0.40993E+03   -0.37524E+03 17672   0.821E+01
DAV:   4    -0.162520612676E+04   -0.25086E+02   -0.22947E+02 16072   0.168E+01
DAV:   5    -0.162632234263E+04   -0.11162E+01   -0.10930E+01 17192   0.438E+00    0.397E+01
DAV:   6    -0.159433466112E+04    0.31988E+02   -0.15607E+02 18408   0.184E+01    0.249E+01
DAV:   7    -0.157704674340E+04    0.17288E+02   -0.10936E+02 18256   0.169E+01    0.188E+01
DAV:   8    -0.156637723078E+04    0.10670E+02   -0.73263E+01 16424   0.117E+01    0.113E+01
DAV:   9    -0.155983014212E+04    0.65471E+01   -0.29355E+01 16168   0.877E+00    0.370E+00
DAV:  10    -0.155952793765E+04    0.30220E+00   -0.60885E+00 16578   0.370E+00    0.178E+00
DAV:  11    -0.155949843499E+04    0.29503E-01   -0.10717E+00 15544   0.158E+00    0.124E+00
DAV:  12    -0.155947391103E+04    0.24524E-01   -0.29288E-01 14024   0.739E-01    0.706E-01
DAV:  13    -0.155946579713E+04    0.81139E-02   -0.78471E-02 16152   0.492E-01    0.486E-01
DAV:  14    -0.155945609548E+04    0.97017E-02   -0.34839E-02 16576   0.311E-01    0.252E-01
DAV:  15    -0.155945405908E+04    0.20364E-02   -0.13881E-02 15568   0.156E-01    0.989E-02
DAV:  16    -0.155945399285E+04    0.66232E-04   -0.30674E-03 16552   0.852E-02    0.611E-02
DAV:  17    -0.155945397035E+04    0.22502E-04   -0.95707E-04 16048   0.483E-02    0.418E-02
DAV:  18    -0.155945394770E+04    0.22646E-04   -0.32211E-04 15080   0.285E-02    0.239E-02
DAV:  19    -0.155945394160E+04    0.61023E-05   -0.11169E-04 13992   0.172E-02    0.134E-02
DAV:  20    -0.155945393807E+04    0.35279E-05   -0.38894E-05  8848   0.112E-02
   1 F= -.15594539E+04 E0= -.15594517E+04  d E =-.155945E+04
       N       E                     dE             d eps       ncg     rms          rms(c)
DAV:   1    -0.156513121685E+04   -0.56773E+01   -0.21647E+03 11368   0.713E+01    0.254E+01
DAV:   2    -0.154525736289E+04    0.19874E+02   -0.14805E+02 18896   0.177E+01    0.177E+01
DAV:   3    -0.153513275806E+04    0.10125E+02   -0.92656E+01 18872   0.141E+01    0.129E+01
DAV:   4    -0.152847616397E+04    0.66566E+01   -0.38902E+01 20768   0.815E+00    0.829E+00
DAV:   5    -0.152567905603E+04    0.27971E+01   -0.20701E+01 17440   0.564E+00    0.361E+00
DAV:   6    -0.152526827716E+04    0.41078E+00   -0.53272E+00 17152   0.306E+00    0.215E+00
DAV:   7    -0.152517481480E+04    0.93462E-01   -0.93919E-01 15752   0.151E+00    0.153E+00
DAV:   8    -0.152514046272E+04    0.34352E-01   -0.30682E-01 17800   0.648E-01    0.834E-01
DAV:   9    -0.152513997997E+04    0.48275E-03   -0.17892E-01 17864   0.427E-01    0.413E-01
DAV:  10    -0.152514408771E+04   -0.41077E-02   -0.46476E-02 17392   0.297E-01    0.386E-01
DAV:  11    -0.152513855811E+04    0.55296E-02   -0.18997E-02 17824   0.204E-01    0.199E-01
DAV:  12    -0.152513781250E+04    0.74561E-03   -0.95858E-03 18304   0.112E-01    0.877E-02
DAV:  13    -0.152513816446E+04   -0.35196E-03   -0.19748E-03 17240   0.593E-02    0.642E-02
DAV:  14    -0.152513824686E+04   -0.82408E-04   -0.96875E-04 16944   0.446E-02    0.397E-02
DAV:  15    -0.152513826346E+04   -0.16600E-04   -0.40422E-04 17216   0.252E-02    0.260E-02
DAV:  16    -0.152513825046E+04    0.13007E-04   -0.12938E-04 14432   0.144E-02    0.124E-02
DAV:  17    -0.152513825199E+04   -0.15322E-05   -0.32101E-05  7560   0.907E-03
   2 F= -.15251383E+04 E0= -.15251453E+04  d E =0.343157E+02
       N       E                     dE             d eps       ncg     rms          rms(c)
DAV:   1    -0.158655572587E+04   -0.61417E+02   -0.10548E+03 11368   0.550E+01    0.177E+01
DAV:   2    -0.157469356808E+04    0.11862E+02   -0.42091E+01 17296   0.109E+01    0.961E+00
DAV:   3    -0.157215311396E+04    0.25405E+01   -0.28049E+01 18248   0.822E+00    0.792E+00
DAV:   4    -0.156916222102E+04    0.29909E+01   -0.12192E+01 17160   0.524E+00    0.439E+00
DAV:   5    -0.156823920275E+04    0.92302E+00   -0.59669E+00 16120   0.372E+00    0.158E+00
DAV:   6    -0.156817828283E+04    0.60920E-01   -0.13766E+00 15384   0.179E+00    0.900E-01
DAV:   7    -0.156817444747E+04    0.38354E-02   -0.23766E-01 15064   0.771E-01    0.684E-01
DAV:   8    -0.156817691544E+04   -0.24680E-02   -0.58276E-02 15248   0.319E-01    0.389E-01
DAV:   9    -0.156818820147E+04   -0.11286E-01   -0.48360E-02 16568   0.267E-01    0.253E-01
DAV:  10    -0.156818945090E+04   -0.12494E-02   -0.12822E-02 15104   0.191E-01    0.211E-01
DAV:  11    -0.156818794884E+04    0.15021E-02   -0.58504E-03 16920   0.111E-01    0.937E-02
DAV:  12    -0.156818785352E+04    0.95326E-04   -0.24040E-03 17240   0.601E-02    0.457E-02
DAV:  13    -0.156818809022E+04   -0.23670E-03   -0.68076E-04 16296   0.374E-02    0.393E-02
DAV:  14    -0.156818817687E+04   -0.86648E-04   -0.27925E-04 15072   0.250E-02    0.183E-02
DAV:  15    -0.156818817817E+04   -0.13020E-05   -0.78278E-05 12472   0.119E-02
   3 F= -.15681882E+04 E0= -.15681920E+04  d E =-.430499E+02
       N       E                     dE             d eps       ncg     rms          rms(c)
DAV:   1    -0.156850560883E+04   -0.31743E+00   -0.28418E+01 11368   0.723E+00    0.103E+00
DAV:   2    -0.156851909115E+04   -0.13482E-01   -0.45836E-01 16896   0.931E-01    0.811E-01
DAV:   3    -0.156849505190E+04    0.24039E-01   -0.13934E-01 18320   0.593E-01    0.533E-01
DAV:   4    -0.156848505765E+04    0.99943E-02   -0.42810E-02 15832   0.301E-01    0.289E-01
DAV:   5    -0.156848261208E+04    0.24456E-02   -0.20898E-02 15312   0.223E-01    0.137E-01
DAV:   6    -0.156848203278E+04    0.57930E-03   -0.60580E-03 15904   0.135E-01    0.770E-02
DAV:   7    -0.156848194930E+04    0.83476E-04   -0.17716E-03 16128   0.666E-02    0.530E-02
DAV:   8    -0.156848190713E+04    0.42173E-04   -0.48588E-04 15888   0.331E-02    0.321E-02
DAV:   9    -0.156848190937E+04   -0.22393E-05   -0.18135E-04 16448   0.211E-02    0.229E-02
DAV:  10    -0.156848190699E+04    0.23859E-05   -0.92475E-05 13720   0.152E-02
   4 F= -.15684819E+04 E0= -.15684883E+04  d E =-.293729E+00
       N       E                     dE             d eps       ncg     rms          rms(c)
DAV:   1    -0.156854328103E+04   -0.61372E-01   -0.54788E+00 11368   0.311E+00    0.481E-01
DAV:   2    -0.156856197672E+04   -0.18696E-01   -0.15856E-01 18064   0.676E-01    0.593E-01
DAV:   3    -0.156853772440E+04    0.24252E-01   -0.79858E-02 18032   0.456E-01    0.231E-01
DAV:   4    -0.156853614862E+04    0.15758E-02   -0.10107E-02 16216   0.142E-01    0.155E-01
DAV:   5    -0.156853545348E+04    0.69515E-03   -0.44337E-03 15752   0.105E-01    0.898E-02
DAV:   6    -0.156853520024E+04    0.25323E-03   -0.20787E-03 15672   0.771E-02    0.531E-02
DAV:   7    -0.156853507711E+04    0.12313E-03   -0.70347E-04 15248   0.431E-02    0.274E-02
DAV:   8    -0.156853507765E+04   -0.53949E-06   -0.16095E-04 15096   0.181E-02    0.190E-02
DAV:   9    -0.156853507625E+04    0.14077E-05   -0.46819E-05 10216   0.117E-02
   5 F= -.15685351E+04 E0= -.15685405E+04  d E =-.531693E-01
       N       E                     dE             d eps       ncg     rms          rms(c)
DAV:   1    -0.156855637649E+04   -0.21299E-01   -0.20455E+00 11368   0.192E+00    0.264E-01
DAV:   2    -0.156856008250E+04   -0.37060E-02   -0.34857E-02 16832   0.297E-01    0.287E-01
DAV:   3    -0.156855535014E+04    0.47324E-02   -0.15519E-02 17016   0.205E-01    0.136E-01
DAV:   4    -0.156855494495E+04    0.40519E-03   -0.31671E-03 15488   0.800E-02    0.771E-02
DAV:   5    -0.156855482062E+04    0.12433E-03   -0.14637E-03 15944   0.623E-02    0.403E-02
DAV:   6    -0.156855477757E+04    0.43054E-04   -0.53008E-04 15880   0.394E-02    0.212E-02
DAV:   7    -0.156855476852E+04    0.90502E-05   -0.13804E-04 14376   0.187E-02    0.135E-02
DAV:   8    -0.156855476371E+04    0.48027E-05   -0.27725E-05  7824   0.960E-03
   6 F= -.15685548E+04 E0= -.15685607E+04  d E =-.196875E-01
       N       E                     dE             d eps       ncg     rms          rms(c)
DAV:   1    -0.156856818823E+04   -0.13420E-01   -0.69407E-01 11422   0.114E+00    0.231E-01
DAV:   2    -0.156857050157E+04   -0.23133E-02   -0.25421E-02 18320   0.281E-01    0.259E-01
DAV:   3    -0.156856591429E+04    0.45873E-02   -0.15113E-02 18152   0.198E-01    0.105E-01
DAV:   4    -0.156856549942E+04    0.41487E-03   -0.21822E-03 15984   0.658E-02    0.661E-02
DAV:   5    -0.156856529462E+04    0.20480E-03   -0.98300E-04 15752   0.518E-02    0.366E-02
DAV:   6    -0.156856522051E+04    0.74112E-04   -0.40468E-04 15856   0.346E-02    0.206E-02
DAV:   7    -0.156856519898E+04    0.21528E-04   -0.12022E-04 14016   0.177E-02    0.115E-02
DAV:   8    -0.156856520087E+04   -0.18896E-05   -0.21802E-05  7088   0.804E-03
   7 F= -.15685652E+04 E0= -.15685706E+04  d E =-.104372E-01
       N       E                     dE             d eps       ncg     rms          rms(c)
DAV:   1    -0.156857220210E+04   -0.70031E-02   -0.64981E-01 11368   0.106E+00    0.129E-01
DAV:   2    -0.156857439973E+04   -0.21976E-02   -0.12529E-02 16936   0.189E-01    0.185E-01
DAV:   3    -0.156857210772E+04    0.22920E-02   -0.61936E-03 16880   0.131E-01    0.677E-02
DAV:   4    -0.156857207259E+04    0.35129E-04   -0.89397E-04 16456   0.417E-02    0.448E-02
DAV:   5    -0.156857203897E+04    0.33623E-04   -0.39630E-04 15728   0.331E-02    0.219E-02
DAV:   6    -0.156857203019E+04    0.87822E-05   -0.16304E-04 15384   0.211E-02    0.108E-02
DAV:   7    -0.156857202517E+04    0.50163E-05   -0.30024E-05  7776   0.990E-03
   8 F= -.15685720E+04 E0= -.15685776E+04  d E =-.682430E-02
       N       E                     dE             d eps       ncg     rms          rms(c)
DAV:   1    -0.156857582104E+04   -0.37909E-02   -0.31595E-01 11416   0.746E-01    0.114E-01
DAV:   2    -0.156857719951E+04   -0.13785E-02   -0.90118E-03 18176   0.168E-01    0.159E-01
DAV:   3    -0.156857538301E+04    0.18165E-02   -0.51805E-03 17936   0.117E-01    0.541E-02
DAV:   4    -0.156857529523E+04    0.87777E-04   -0.56876E-04 16256   0.332E-02    0.369E-02
DAV:   5    -0.156857523609E+04    0.59143E-04   -0.25431E-04 15880   0.262E-02    0.211E-02
DAV:   6    -0.156857520852E+04    0.27575E-04   -0.11739E-04 14600   0.188E-02    0.111E-02
DAV:   7    -0.156857520226E+04    0.62528E-05   -0.28661E-05  7376   0.948E-03
   9 F= -.15685752E+04 E0= -.15685806E+04  d E =-.317709E-02
       N       E                     dE             d eps       ncg     rms          rms(c)
DAV:   1    -0.156857701479E+04   -0.18063E-02   -0.11708E-01 11464   0.461E-01    0.692E-02
DAV:   2    -0.156857718769E+04   -0.17291E-03   -0.18047E-03 16840   0.671E-02    0.676E-02
DAV:   3    -0.156857695328E+04    0.23441E-03   -0.85918E-04 17376   0.483E-02    0.348E-02
DAV:   4    -0.156857694201E+04    0.11269E-04   -0.17576E-04 14504   0.192E-02    0.166E-02
DAV:   5    -0.156857695151E+04   -0.94927E-05   -0.67420E-05 12672   0.151E-02
  10 F= -.15685770E+04 E0= -.15685825E+04  d E =-.174924E-02
       N       E                     dE             d eps       ncg     rms          rms(c)
DAV:   1    -0.156857854680E+04   -0.16048E-02   -0.11967E-01 11428   0.457E-01    0.637E-02
DAV:   2    -0.156857896206E+04   -0.41527E-03   -0.28035E-03 18264   0.910E-02    0.875E-02
DAV:   3    -0.156857842966E+04    0.53241E-03   -0.15265E-03 18088   0.633E-02    0.320E-02
DAV:   4    -0.156857839798E+04    0.31681E-04   -0.17134E-04 15536   0.186E-02    0.218E-02
DAV:   5    -0.156857837309E+04    0.24885E-04   -0.81198E-05 13592   0.154E-02    0.115E-02
DAV:   6    -0.156857836237E+04    0.10721E-04   -0.28212E-05  8256   0.110E-02    0.539E-03
DAV:   7    -0.156857836146E+04    0.90912E-06   -0.89724E-06  6536   0.582E-03
  11 F= -.15685784E+04 E0= -.15685838E+04  d E =-.140995E-02
       N       E                     dE             d eps       ncg     rms          rms(c)
DAV:   1    -0.156857938342E+04   -0.10211E-02   -0.10223E-01 11428   0.420E-01    0.461E-02
DAV:   2    -0.156857963100E+04   -0.24757E-03   -0.15060E-03 17664   0.621E-02    0.609E-02
DAV:   3    -0.156857940589E+04    0.22511E-03   -0.67234E-04 18016   0.427E-02    0.261E-02
DAV:   4    -0.156857940518E+04    0.71107E-06   -0.90211E-05 13352   0.143E-02    0.134E-02
DAV:   5    -0.156857940636E+04   -0.11805E-05   -0.32471E-05  8704   0.116E-02
  12 F= -.15685794E+04 E0= -.15685849E+04  d E =-.104490E-02
       N       E                     dE             d eps       ncg     rms          rms(c)
DAV:   1    -0.156857997676E+04   -0.57159E-03   -0.31031E-02 11512   0.237E-01    0.372E-02
DAV:   2    -0.156858000618E+04   -0.29415E-04   -0.63303E-04 18256   0.415E-02    0.389E-02
DAV:   3    -0.156857990919E+04    0.96986E-04   -0.32071E-04 17896   0.291E-02    0.183E-02
DAV:   4    -0.156857988798E+04    0.21212E-04   -0.47999E-05 10024   0.105E-02    0.108E-02
DAV:   5    -0.156857987484E+04    0.13140E-04   -0.19111E-05  7160   0.888E-03    0.564E-03
DAV:   6    -0.156857987006E+04    0.47787E-05   -0.71789E-06  6448   0.619E-03
  13 F= -.15685799E+04 E0= -.15685853E+04  d E =-.463705E-03
       N       E                     dE             d eps       ncg     rms          rms(c)
DAV:   1    -0.156858040687E+04   -0.53203E-03   -0.43061E-02 11428   0.273E-01    0.297E-02
DAV:   2    -0.156858047496E+04   -0.68094E-04   -0.50709E-04 17552   0.332E-02    0.319E-02
DAV:   3    -0.156858042605E+04    0.48911E-04   -0.16982E-04 16478   0.217E-02    0.174E-02
DAV:   4    -0.156858042959E+04   -0.35347E-05   -0.32815E-05  8248   0.913E-03    0.728E-03
DAV:   5    -0.156858043239E+04   -0.27991E-05   -0.11056E-05  6856   0.762E-03
  14 F= -.15685804E+04 E0= -.15685859E+04  d E =-.562325E-03
       N       E                     dE             d eps       ncg     rms          rms(c)
DAV:   1    -0.156858091245E+04   -0.48286E-03   -0.43137E-02 11452   0.272E-01    0.295E-02
DAV:   2    -0.156858097205E+04   -0.59595E-04   -0.57902E-04 17824   0.371E-02    0.344E-02
DAV:   3    -0.156858090277E+04    0.69274E-04   -0.22018E-04 16864   0.246E-02    0.170E-02
DAV:   4    -0.156858089113E+04    0.11647E-04   -0.30042E-05  8064   0.883E-03    0.995E-03
DAV:   5    -0.156858088400E+04    0.71281E-05   -0.14621E-05  6880   0.799E-03
  15 F= -.15685809E+04 E0= -.15685864E+04  d E =-.451611E-03
       N       E                     dE             d eps       ncg     rms          rms(c)
DAV:   1    -0.156858117715E+04   -0.28603E-03   -0.23158E-02 11500   0.201E-01    0.218E-02
DAV:   2    -0.156858120199E+04   -0.24834E-04   -0.22998E-04 16600   0.202E-02    0.178E-02
DAV:   3    -0.156858119443E+04    0.75613E-05   -0.37510E-05  9220   0.115E-02    0.126E-02
DAV:   4    -0.156858119935E+04   -0.49296E-05   -0.18429E-05  6544   0.733E-03    0.548E-03
DAV:   5    -0.156858120309E+04   -0.37398E-05   -0.75258E-06  6352   0.583E-03
  16 F= -.15685812E+04 E0= -.15685867E+04  d E =-.319097E-03
       N       E                     dE             d eps       ncg     rms          rms(c)
DAV:   1    -0.156858147060E+04   -0.27124E-03   -0.16983E-02 11476   0.172E-01    0.206E-02
DAV:   2    -0.156858147776E+04   -0.71620E-05   -0.21767E-04 17672   0.226E-02    0.203E-02
DAV:   3    -0.156858145451E+04    0.23250E-04   -0.74427E-05 12504   0.150E-02    0.114E-02
DAV:   4    -0.156858144654E+04    0.79667E-05   -0.16440E-05  6640   0.712E-03    0.679E-03
DAV:   5    -0.156858144053E+04    0.60144E-05   -0.81447E-06  6312   0.602E-03
  17 F= -.15685814E+04 E0= -.15685870E+04  d E =-.237433E-03
       N       E                     dE             d eps       ncg     rms          rms(c)
DAV:   1    -0.156858169749E+04   -0.25094E-03   -0.23365E-02 11452   0.200E-01    0.191E-02
DAV:   2    -0.156858171958E+04   -0.22098E-04   -0.21296E-04 16456   0.193E-02    0.167E-02
DAV:   3    -0.156858171226E+04    0.73263E-05   -0.27220E-05  8342   0.103E-02    0.122E-02
DAV:   4    -0.156858171474E+04   -0.24830E-05   -0.19259E-05  6408   0.697E-03    0.423E-03
DAV:   5    -0.156858171624E+04   -0.14942E-05   -0.68528E-06  6304   0.582E-03
  18 F= -.15685817E+04 E0= -.15685873E+04  d E =-.275708E-03
       N       E                     dE             d eps       ncg     rms          rms(c)
DAV:   1    -0.156858195445E+04   -0.23971E-03   -0.21491E-02 11452   0.192E-01    0.202E-02
DAV:   2    -0.156858196373E+04   -0.92753E-05   -0.23135E-04 17168   0.220E-02    0.189E-02
DAV:   3    -0.156858194659E+04    0.17134E-04   -0.58244E-05 11208   0.137E-02    0.119E-02
DAV:   4    -0.156858193910E+04    0.74909E-05   -0.16481E-05  6552   0.697E-03    0.670E-03
DAV:   5    -0.156858193401E+04    0.50970E-05   -0.82871E-06  6312   0.610E-03
  19 F= -.15685819E+04 E0= -.15685875E+04  d E =-.217770E-03
       N       E                     dE             d eps       ncg     rms          rms(c)
DAV:   1    -0.156858204833E+04   -0.10923E-03   -0.61273E-03 11512   0.104E-01    0.125E-02
DAV:   2    -0.156858205689E+04   -0.85580E-05   -0.52975E-05 11136   0.998E-03    0.840E-03
DAV:   3    -0.156858205889E+04   -0.19974E-05   -0.11335E-05  6658   0.621E-03    0.633E-03
DAV:   4    -0.156858206256E+04   -0.36761E-05   -0.51193E-06  6104   0.455E-03    0.306E-03
DAV:   5    -0.156858206516E+04   -0.25919E-05   -0.27390E-06  5960   0.324E-03
  20 F= -.15685821E+04 E0= -.15685876E+04  d E =-.131151E-03
       N       E                     dE             d eps       ncg     rms          rms(c)
DAV:   1    -0.156858224677E+04   -0.18420E-03   -0.15959E-02 11464   0.165E-01    0.161E-02
DAV:   2    -0.156858225145E+04   -0.46854E-05   -0.15126E-04 16032   0.159E-02    0.133E-02
DAV:   3    -0.156858224604E+04    0.54114E-05   -0.16928E-05  7498   0.844E-03    0.101E-02
DAV:   4    -0.156858224062E+04    0.54206E-05   -0.11184E-05  6176   0.558E-03    0.471E-03
DAV:   5    -0.156858223819E+04    0.24312E-05   -0.53653E-06  6082   0.491E-03
  21 F= -.15685822E+04 E0= -.15685878E+04  d E =-.173033E-03
       N       E                     dE             d eps       ncg     rms          rms(c)
DAV:   1    -0.156858238125E+04   -0.14063E-03   -0.13580E-02 11452   0.153E-01    0.141E-02
DAV:   2    -0.156858239411E+04   -0.12858E-04   -0.11919E-04 15632   0.138E-02    0.112E-02
DAV:   3    -0.156858239330E+04    0.81564E-06   -0.10405E-05  6972   0.642E-03    0.881E-03
DAV:   4    -0.156858239592E+04   -0.26255E-05   -0.80512E-06  6192   0.491E-03    0.289E-03
DAV:   5    -0.156858239730E+04   -0.13770E-05   -0.30216E-06  5952   0.378E-03
  22 F= -.15685824E+04 E0= -.15685880E+04  d E =-.159109E-03
       N       E                     dE             d eps       ncg     rms          rms(c)
DAV:   1    -0.156858250126E+04   -0.10534E-03   -0.61933E-03 11476   0.104E-01    0.118E-02
DAV:   2    -0.156858249577E+04    0.54955E-05   -0.56568E-05 11328   0.111E-02    0.880E-03
DAV:   3    -0.156858249248E+04    0.32869E-05   -0.13960E-05  7014   0.713E-03    0.643E-03
DAV:   4    -0.156858248802E+04    0.44568E-05   -0.53949E-06  5936   0.403E-03    0.351E-03
DAV:   5    -0.156858248495E+04    0.30713E-05   -0.30272E-06  5936   0.333E-03
  23 F= -.15685825E+04 E0= -.15685880E+04  d E =-.876535E-04
       N       E                     dE             d eps       ncg     rms          rms(c)
DAV:   1    -0.156858258481E+04   -0.96786E-04   -0.79994E-03 11464   0.117E-01    0.115E-02
DAV:   2    -0.156858259294E+04   -0.81276E-05   -0.69060E-05 12840   0.104E-02    0.862E-03
DAV:   3    -0.156858259389E+04   -0.94959E-06   -0.85869E-06  6340   0.535E-03    0.651E-03
DAV:   4    -0.156858259632E+04   -0.24324E-05   -0.48303E-06  5960   0.427E-03    0.226E-03
DAV:   5    -0.156858259739E+04   -0.10741E-05   -0.20544E-06  5930   0.300E-03
  24 F= -.15685826E+04 E0= -.15685882E+04  d E =-.112441E-03
       N       E                     dE             d eps       ncg     rms          rms(c)
DAV:   1    -0.156858270454E+04   -0.10823E-03   -0.94102E-03 11464   0.127E-01    0.121E-02
DAV:   2    -0.156858270509E+04   -0.54230E-06   -0.84655E-05 14424   0.117E-02    0.938E-03
DAV:   3    -0.156858270288E+04    0.22035E-05   -0.91459E-06  6666   0.583E-03    0.745E-03
DAV:   4    -0.156858269893E+04    0.39552E-05   -0.54055E-06  5936   0.412E-03    0.335E-03
DAV:   5    -0.156858269705E+04    0.18819E-05   -0.26859E-06  5936   0.338E-03
  25 F= -.15685827E+04 E0= -.15685883E+04  d E =-.996528E-04
       N       E                     dE             d eps       ncg     rms          rms(c)
DAV:   1    -0.156858276403E+04   -0.65106E-04   -0.49027E-03 11476   0.920E-02    0.911E-03
DAV:   2    -0.156858276931E+04   -0.52726E-05   -0.29301E-05  8192   0.825E-03    0.637E-03
DAV:   3    -0.156858277138E+04   -0.20691E-05   -0.98547E-06  6212   0.512E-03    0.451E-03
DAV:   4    -0.156858277412E+04   -0.27480E-05   -0.56333E-06  5936   0.427E-03    0.168E-03
DAV:   5    -0.156858277517E+04   -0.10464E-05   -0.30523E-06  5936   0.304E-03
  26 F= -.15685828E+04 E0= -.15685884E+04  d E =-.781240E-04
       N       E                     dE             d eps       ncg     rms          rms(c)
DAV:   1    -0.156858285258E+04   -0.78458E-04   -0.57618E-03 11464   0.995E-02    0.107E-02
DAV:   2    -0.156858284948E+04    0.31028E-05   -0.56554E-05 11504   0.991E-03    0.791E-03
DAV:   3    -0.156858284755E+04    0.19322E-05   -0.10192E-05  6458   0.599E-03    0.615E-03
DAV:   4    -0.156858284393E+04    0.36201E-05   -0.43074E-06  5936   0.376E-03    0.321E-03
DAV:   5    -0.156858284149E+04    0.24407E-05   -0.24014E-06  5936   0.299E-03
  27 F= -.15685828E+04 E0= -.15685884E+04  d E =-.663157E-04
       N       E                     dE             d eps       ncg     rms          rms(c)
DAV:   1    -0.156858289012E+04   -0.46193E-04   -0.30349E-03 11476   0.722E-02    0.716E-03
DAV:   2    -0.156858289386E+04   -0.37366E-05   -0.18064E-05  6680   0.651E-03    0.513E-03
DAV:   3    -0.156858289513E+04   -0.12763E-05   -0.66038E-06  5996   0.409E-03    0.378E-03
DAV:   4    -0.156858289742E+04   -0.22861E-05   -0.40827E-06  5936   0.334E-03    0.129E-03
DAV:   5    -0.156858289811E+04   -0.68957E-06   -0.21428E-06  5936   0.243E-03
  28 F= -.15685829E+04 E0= -.15685885E+04  d E =-.566221E-04
       N       E                     dE             d eps       ncg     rms          rms(c)
DAV:   1    -0.156858297692E+04   -0.79503E-04   -0.84075E-03 11452   0.120E-01    0.114E-02
DAV:   2    -0.156858297820E+04   -0.12780E-05   -0.79180E-05 13920   0.110E-02    0.873E-03
DAV:   3    -0.156858297659E+04    0.16063E-05   -0.77416E-06  6372   0.525E-03    0.689E-03
DAV:   4    -0.156858297333E+04    0.32609E-05   -0.45710E-06  5936   0.397E-03    0.297E-03
DAV:   5    -0.156858297188E+04    0.14500E-05   -0.22514E-06  5930   0.309E-03
  29 F= -.15685830E+04 E0= -.15685886E+04  d E =-.737747E-04
       N       E                     dE             d eps       ncg     rms          rms(c)
DAV:   1    -0.156858298499E+04   -0.11656E-04   -0.36075E-04 11480   0.261E-02    0.442E-03
DAV:   2    -0.156858298847E+04   -0.34833E-05   -0.37475E-06  5936   0.324E-03    0.264E-03
DAV:   3    -0.156858298944E+04   -0.96482E-06   -0.15206E-06  5930   0.264E-03    0.202E-03
DAV:   4    -0.156858299125E+04   -0.18150E-05   -0.88489E-07  5936   0.173E-03    0.933E-04
DAV:   5    -0.156858299228E+04   -0.10271E-05   -0.47639E-07  5936   0.123E-03
  30 F= -.15685830E+04 E0= -.15685886E+04  d E =-.203960E-04
       N       E                     dE             d eps       ncg     rms          rms(c)
DAV:   1    -0.156858305290E+04   -0.61651E-04   -0.56589E-03 11452   0.982E-02    0.911E-03
DAV:   2    -0.156858305273E+04    0.17013E-06   -0.34901E-05  8928   0.864E-03    0.678E-03
DAV:   3    -0.156858305236E+04    0.36764E-06   -0.96368E-06  6156   0.503E-03    0.514E-03
DAV:   4    -0.156858305048E+04    0.18803E-05   -0.56831E-06  5936   0.402E-03    0.160E-03
DAV:   5    -0.156858305032E+04    0.15881E-06   -0.28490E-06  5918   0.292E-03
  31 F= -.15685831E+04 E0= -.15685887E+04  d E =-.580469E-04
       N       E                     dE             d eps       ncg     rms          rms(c)
DAV:   1    -0.156858312415E+04   -0.73666E-04   -0.14337E-02 11392   0.157E-01    0.145E-02
DAV:   2    -0.156858313686E+04   -0.12713E-04   -0.13298E-04 15840   0.138E-02    0.109E-02
DAV:   3    -0.156858313754E+04   -0.68016E-06   -0.86377E-06  6408   0.525E-03    0.691E-03
DAV:   4    -0.156858313976E+04   -0.22180E-05   -0.56573E-06  6240   0.513E-03    0.311E-03
DAV:   5    -0.156858314020E+04   -0.43645E-06   -0.23935E-06  5952   0.364E-03
  32 F= -.15685831E+04 E0= -.15685888E+04  d E =-.898719E-04
       N       E                     dE             d eps       ncg     rms          rms(c)
DAV:   1    -0.156858313070E+04    0.90614E-05   -0.10326E-03 11464   0.436E-02    0.701E-03
DAV:   2    -0.156858312339E+04    0.73070E-05   -0.71475E-06  5918   0.466E-03    0.413E-03
DAV:   3    -0.156858312136E+04    0.20330E-05   -0.27746E-06  5900   0.364E-03    0.329E-03
DAV:   4    -0.156858311810E+04    0.32546E-05   -0.14642E-06  5918   0.248E-03    0.143E-03
DAV:   5    -0.156858311650E+04    0.16066E-05   -0.78082E-07  5918   0.156E-03
  33 F= -.15685831E+04 E0= -.15685887E+04  d E =0.236991E-04
       N       E                     dE             d eps       ncg     rms          rms(c)
DAV:   1    -0.156858316457E+04   -0.46465E-04   -0.54149E-03 11458   0.961E-02    0.828E-03
DAV:   2    -0.156858316565E+04   -0.10828E-05   -0.26264E-05  7344   0.805E-03    0.617E-03
DAV:   3    -0.156858316586E+04   -0.20546E-06   -0.84696E-06  5924   0.452E-03    0.435E-03
DAV:   4    -0.156858316561E+04    0.24704E-06   -0.54104E-06  5936   0.397E-03    0.109E-03
DAV:   5    -0.156858316580E+04   -0.19208E-06   -0.25034E-06  5936   0.268E-03
  34 F= -.15685832E+04 E0= -.15685888E+04  d E =-.493052E-04
       N       E                     dE             d eps       ncg     rms          rms(c)
DAV:   1    -0.156858330886E+04   -0.14325E-03   -0.11609E-01 11368   0.445E-01    0.390E-02
DAV:   2    -0.156858337057E+04   -0.61710E-04   -0.98362E-04 16920   0.379E-02    0.303E-02
DAV:   3    -0.156858336083E+04    0.97345E-05   -0.76597E-05 12640   0.138E-02    0.213E-02
DAV:   4    -0.156858334645E+04    0.14385E-04   -0.59435E-05 11632   0.134E-02    0.733E-03
DAV:   5    -0.156858334384E+04    0.26050E-05   -0.16267E-05  6944   0.811E-03
  35 F= -.15685833E+04 E0= -.15685890E+04  d E =-.178041E-03
       N       E                     dE             d eps       ncg     rms          rms(c)
DAV:   1    -0.156858339056E+04   -0.44110E-04   -0.33968E-02 11368   0.241E-01    0.203E-02
DAV:   2    -0.156858340957E+04   -0.19008E-04   -0.29595E-04 16672   0.209E-02    0.162E-02
DAV:   3    -0.156858340607E+04    0.34999E-05   -0.14950E-05  7436   0.774E-03    0.128E-02
DAV:   4    -0.156858340071E+04    0.53591E-05   -0.16906E-05  6584   0.709E-03    0.433E-03
DAV:   5    -0.156858339979E+04    0.92115E-06   -0.58646E-06  6240   0.542E-03
  36 F= -.15685834E+04 E0= -.15685891E+04  d E =-.559427E-04
       N       E                     dE             d eps       ncg     rms          rms(c)
DAV:   1    -0.156858341531E+04   -0.14600E-04   -0.77591E-02 11368   0.364E-01    0.314E-02
DAV:   2    -0.156858345937E+04   -0.44067E-04   -0.65656E-04 16912   0.311E-02    0.244E-02
DAV:   3    -0.156858345334E+04    0.60316E-05   -0.43870E-05 10042   0.114E-02    0.176E-02
DAV:   4    -0.156858344579E+04    0.75501E-05   -0.33426E-05  8520   0.111E-02    0.608E-03
DAV:   5    -0.156858344475E+04    0.10397E-05   -0.11031E-05  6648   0.753E-03
  37 F= -.15685834E+04 E0= -.15685891E+04  d E =-.449665E-04
       N       E                     dE             d eps       ncg     rms          rms(c)
DAV:   1    -0.156858344500E+04    0.79520E-06   -0.51908E-04 11476   0.300E-02    0.439E-03
DAV:   2    -0.156858344411E+04    0.89137E-06   -0.45643E-06  5936   0.409E-03    0.393E-03
DAV:   3    -0.156858344320E+04    0.90524E-06   -0.13378E-06  5936   0.300E-03    0.247E-03
DAV:   4    -0.156858344198E+04    0.12192E-05   -0.94058E-07  5936   0.156E-03    0.971E-04
DAV:   5    -0.156858344173E+04    0.24757E-06   -0.35347E-07  5936   0.124E-03
  38 F= -.15685834E+04 E0= -.15685891E+04  d E =0.301885E-05
       N       E                     dE             d eps       ncg     rms          rms(c)
DAV:   1    -0.156858344246E+04   -0.47825E-06   -0.34865E-04 11372   0.244E-02    0.224E-03
DAV:   2    -0.156858344306E+04   -0.59904E-06   -0.16917E-06  5918   0.209E-03    0.163E-03
DAV:   3    -0.156858344327E+04   -0.21097E-06   -0.54699E-07  5900   0.118E-03    0.120E-03
DAV:   4    -0.156858344369E+04   -0.41568E-06   -0.34114E-07  5900   0.101E-03    0.394E-04
DAV:   5    -0.156858344378E+04   -0.91001E-07   -0.17223E-07  5900   0.716E-04
  39 F= -.15685834E+04 E0= -.15685891E+04  d E =-.204251E-05
