       N       E                     dE             d eps       ncg     rms          rms(c)
DAV:   1     0.250690228284E+04    0.25069E+04   -0.30553E+05 12140   0.144E+03
DAV:   2    -0.119468218467E+04   -0.37016E+04   -0.35448E+04 13954   0.327E+02
DAV:   3    -0.167579092594E+04   -0.48111E+03   -0.45306E+03 18600   0.826E+01
DAV:   4    -0.170105190862E+04   -0.25261E+02   -0.24220E+02 17056   0.182E+01
DAV:   5    -0.170210522464E+04   -0.10533E+01   -0.10359E+01 18792   0.393E+00    0.440E+01
DAV:   6    -0.164968949708E+04    0.52416E+02   -0.11193E+02 18040   0.142E+01    0.232E+01
DAV:   7    -0.163720853217E+04    0.12481E+02   -0.79167E+01 17912   0.147E+01    0.149E+01
DAV:   8    -0.162628645869E+04    0.10922E+02   -0.44773E+01 17744   0.122E+01    0.561E+00
DAV:   9    -0.162506625380E+04    0.12202E+01   -0.15466E+01 17704   0.610E+00    0.209E+00
DAV:  10    -0.162507650677E+04   -0.10253E-01   -0.21680E+00 15376   0.219E+00    0.144E+00
DAV:  11    -0.162504092414E+04    0.35583E-01   -0.46450E-01 16536   0.869E-01    0.728E-01
DAV:  12    -0.162502965173E+04    0.11272E-01   -0.81714E-02 16456   0.459E-01    0.403E-01
DAV:  13    -0.162502372727E+04    0.59245E-02   -0.22009E-02 17288   0.284E-01    0.207E-01
DAV:  14    -0.162502245486E+04    0.12724E-02   -0.97390E-03 15512   0.137E-01    0.730E-02
DAV:  15    -0.162502248107E+04   -0.26206E-04   -0.21840E-03 16144   0.674E-02    0.325E-02
DAV:  16    -0.162502248688E+04   -0.58047E-05   -0.32828E-04 17120   0.305E-02    0.194E-02
DAV:  17    -0.162502247794E+04    0.89376E-05   -0.85319E-05 14608   0.178E-02
   1 F= -.16250225E+04 E0= -.16250306E+04  d E =-.162502E+04
       N       E                     dE             d eps       ncg     rms          rms(c)
DAV:   1    -0.162644882398E+04   -0.14263E+01   -0.50451E+02 12124   0.318E+01    0.966E+00
DAV:   2    -0.162220703475E+04    0.42418E+01   -0.15206E+01 16984   0.528E+00    0.458E+00
DAV:   3    -0.162143348500E+04    0.77355E+00   -0.52846E+00 17616   0.354E+00    0.309E+00
DAV:   4    -0.162095327537E+04    0.48021E+00   -0.20035E+00 17976   0.267E+00    0.164E+00
DAV:   5    -0.162081557005E+04    0.13771E+00   -0.10206E+00 15992   0.165E+00    0.545E-01
DAV:   6    -0.162081866431E+04   -0.30943E-02   -0.16257E-01 14768   0.640E-01    0.385E-01
DAV:   7    -0.162081964070E+04   -0.97639E-03   -0.30972E-02 16568   0.248E-01    0.248E-01
DAV:   8    -0.162082122680E+04   -0.15861E-02   -0.14143E-02 16240   0.165E-01    0.138E-01
DAV:   9    -0.162082122962E+04   -0.28190E-05   -0.32908E-03 14568   0.957E-02    0.786E-02
DAV:  10    -0.162082099832E+04    0.23130E-03   -0.17615E-03 16608   0.542E-02    0.292E-02
DAV:  11    -0.162082101906E+04   -0.20741E-04   -0.37754E-04 17784   0.295E-02    0.249E-02
DAV:  12    -0.162082102334E+04   -0.42748E-05   -0.91085E-05 14632   0.164E-02
   2 F= -.16208210E+04 E0= -.16208208E+04  d E =0.420145E+01
       N       E                     dE             d eps       ncg     rms          rms(c)
DAV:   1    -0.162988340650E+04   -0.90624E+01   -0.16090E+02 12124   0.205E+01    0.702E+00
DAV:   2    -0.162749682524E+04    0.23866E+01   -0.40620E+00 13223   0.303E+00    0.322E+00
DAV:   3    -0.162702267137E+04    0.47415E+00   -0.14604E+00 14720   0.205E+00    0.157E+00
DAV:   4    -0.162687534608E+04    0.14733E+00   -0.57111E-01 15392   0.164E+00    0.676E-01
DAV:   5    -0.162685459747E+04    0.20749E-01   -0.24714E-01 15096   0.856E-01    0.245E-01
DAV:   6    -0.162685733322E+04   -0.27357E-02   -0.40136E-02 14816   0.319E-01    0.172E-01
DAV:   7    -0.162685877179E+04   -0.14386E-02   -0.74024E-03 16376   0.118E-01    0.997E-02
DAV:   8    -0.162685979864E+04   -0.10268E-02   -0.22012E-03 14840   0.732E-02    0.552E-02
DAV:   9    -0.162686001401E+04   -0.21537E-03   -0.75772E-04 15312   0.408E-02    0.286E-02
DAV:  10    -0.162686013910E+04   -0.12509E-03   -0.44540E-04 16560   0.290E-02    0.189E-02
DAV:  11    -0.162686016565E+04   -0.26548E-04   -0.52328E-05 11920   0.121E-02    0.115E-02
DAV:  12    -0.162686015732E+04    0.83271E-05   -0.12552E-05  7392   0.652E-03
   3 F= -.16268602E+04 E0= -.16268596E+04  d E =-.603913E+01
       N       E                     dE             d eps       ncg     rms          rms(c)
DAV:   1    -0.162690653272E+04   -0.46367E-01   -0.61680E+00 12124   0.319E+00    0.489E-01
DAV:   2    -0.162690700464E+04   -0.47193E-03   -0.11113E-01 17376   0.533E-01    0.307E-01
DAV:   3    -0.162690363744E+04    0.33672E-02   -0.26827E-02 18424   0.290E-01    0.221E-01
DAV:   4    -0.162690196770E+04    0.16697E-02   -0.65802E-03 17512   0.138E-01    0.115E-01
DAV:   5    -0.162690147922E+04    0.48848E-03   -0.32955E-03 15624   0.894E-02    0.358E-02
DAV:   6    -0.162690147709E+04    0.21289E-05   -0.49468E-04 15392   0.367E-02    0.243E-02
DAV:   7    -0.162690147453E+04    0.25621E-05   -0.94526E-05 14184   0.172E-02
   4 F= -.16269015E+04 E0= -.16269008E+04  d E =-.413172E-01
       N       E                     dE             d eps       ncg     rms          rms(c)
DAV:   1    -0.162690572783E+04   -0.42507E-02   -0.64700E-01 12170   0.102E+00    0.120E-01
DAV:   2    -0.162690629034E+04   -0.56251E-03   -0.92750E-03 16704   0.176E-01    0.930E-02
DAV:   3    -0.162690584700E+04    0.44333E-03   -0.24645E-03 17984   0.916E-02    0.631E-02
DAV:   4    -0.162690576977E+04    0.77237E-04   -0.51769E-04 17016   0.350E-02    0.310E-02
DAV:   5    -0.162690576178E+04    0.79844E-05   -0.23335E-04 15048   0.232E-02    0.946E-03
DAV:   6    -0.162690575778E+04    0.40012E-05   -0.25940E-05  8680   0.991E-03
   5 F= -.16269058E+04 E0= -.16269051E+04  d E =-.428325E-02
       N       E                     dE             d eps       ncg     rms          rms(c)
DAV:   1    -0.162690702061E+04   -0.12588E-02   -0.17281E-01 12304   0.539E-01    0.878E-02
DAV:   2    -0.162690690371E+04    0.11689E-03   -0.25536E-03 16248   0.977E-02    0.589E-02
DAV:   3    -0.162690670187E+04    0.20184E-03   -0.90151E-04 17176   0.577E-02    0.392E-02
DAV:   4    -0.162690660449E+04    0.97378E-04   -0.21262E-04 15120   0.248E-02    0.141E-02
DAV:   5    -0.162690658488E+04    0.19614E-04   -0.62655E-05 13536   0.131E-02    0.579E-03
DAV:   6    -0.162690658346E+04    0.14249E-05   -0.10539E-05  7296   0.669E-03
   6 F= -.16269066E+04 E0= -.16269058E+04  d E =-.825674E-03
       N       E                     dE             d eps       ncg     rms          rms(c)
DAV:   1    -0.162690730465E+04   -0.71977E-03   -0.24073E-02 12360   0.227E-01    0.650E-02
DAV:   2    -0.162690717281E+04    0.13184E-03   -0.41131E-04 14872   0.307E-02    0.313E-02
DAV:   3    -0.162690716875E+04    0.40571E-05   -0.14429E-04 15280   0.206E-02    0.169E-02
DAV:   4    -0.162690716944E+04   -0.69425E-06   -0.58968E-05 12768   0.168E-02    0.689E-03
DAV:   5    -0.162690717938E+04   -0.99394E-05   -0.20935E-05  7200   0.813E-03
   7 F= -.16269072E+04 E0= -.16269065E+04  d E =-.595928E-03
       N       E                     dE             d eps       ncg     rms          rms(c)
DAV:   1    -0.162690761636E+04   -0.44691E-03   -0.45835E-02 12344   0.273E-01    0.351E-02
DAV:   2    -0.162690761985E+04   -0.34927E-05   -0.55547E-04 16536   0.449E-02    0.261E-02
DAV:   3    -0.162690758164E+04    0.38208E-04   -0.16893E-04 16880   0.247E-02    0.179E-02
DAV:   4    -0.162690755985E+04    0.21791E-04   -0.33257E-05  9072   0.103E-02    0.591E-03
DAV:   5    -0.162690755542E+04    0.44273E-05   -0.10511E-05  6800   0.624E-03
   8 F= -.16269076E+04 E0= -.16269068E+04  d E =-.376040E-03
       N       E                     dE             d eps       ncg     rms          rms(c)
DAV:   1    -0.162690774732E+04   -0.18747E-03   -0.28991E-02 12336   0.216E-01    0.247E-02
DAV:   2    -0.162690777128E+04   -0.23959E-04   -0.29019E-04 17136   0.288E-02    0.185E-02
DAV:   3    -0.162690776235E+04    0.89360E-05   -0.58653E-05 12736   0.153E-02    0.138E-02
DAV:   4    -0.162690776694E+04   -0.45929E-05   -0.24246E-05  7248   0.779E-03    0.228E-03
DAV:   5    -0.162690776762E+04   -0.68316E-06   -0.48303E-06  6640   0.472E-03
   9 F= -.16269078E+04 E0= -.16269071E+04  d E =-.212200E-03
       N       E                     dE             d eps       ncg     rms          rms(c)
DAV:   1    -0.162690785237E+04   -0.85427E-04   -0.29472E-03 12360   0.759E-02    0.195E-02
DAV:   2    -0.162690781996E+04    0.32410E-04   -0.43058E-05 10656   0.111E-02    0.994E-03
DAV:   3    -0.162690780965E+04    0.10303E-04   -0.16109E-05  8544   0.898E-03    0.637E-03
DAV:   4    -0.162690779941E+04    0.10244E-04   -0.70683E-06  6696   0.633E-03    0.215E-03
DAV:   5    -0.162690779591E+04    0.35032E-05   -0.38464E-06  6488   0.333E-03
  10 F= -.16269078E+04 E0= -.16269071E+04  d E =-.282838E-04
       N       E                     dE             d eps       ncg     rms          rms(c)
DAV:   1    -0.162690789309E+04   -0.93679E-04   -0.95701E-03 12336   0.125E-01    0.156E-02
DAV:   2    -0.162690790189E+04   -0.87991E-05   -0.84220E-05 14848   0.141E-02    0.105E-02
DAV:   3    -0.162690790254E+04   -0.64844E-06   -0.13794E-05  7888   0.720E-03    0.769E-03
DAV:   4    -0.162690790713E+04   -0.45931E-05   -0.74110E-06  6504   0.486E-03    0.161E-03
DAV:   5    -0.162690790834E+04   -0.12110E-05   -0.23928E-06  6440   0.293E-03
  11 F= -.16269079E+04 E0= -.16269072E+04  d E =-.112434E-03
       N       E                     dE             d eps       ncg     rms          rms(c)
DAV:   1    -0.162690798696E+04   -0.79826E-04   -0.90095E-03 12328   0.120E-01    0.128E-02
DAV:   2    -0.162690798720E+04   -0.24709E-06   -0.75204E-05 14472   0.128E-02    0.951E-03
DAV:   3    -0.162690798483E+04    0.23726E-05   -0.11196E-05  7336   0.627E-03    0.716E-03
DAV:   4    -0.162690798013E+04    0.47013E-05   -0.72215E-06  6424   0.438E-03    0.113E-03
DAV:   5    -0.162690798021E+04   -0.78723E-07   -0.18297E-06  6416   0.272E-03
  12 F= -.16269080E+04 E0= -.16269073E+04  d E =-.718667E-04
       N       E                     dE             d eps       ncg     rms          rms(c)
DAV:   1    -0.162690801833E+04   -0.38196E-04   -0.42188E-03 12344   0.835E-02    0.113E-02
DAV:   2    -0.162690802372E+04   -0.53989E-05   -0.27880E-05  8552   0.848E-03    0.702E-03
DAV:   3    -0.162690802822E+04   -0.44995E-05   -0.10273E-05  6584   0.536E-03    0.314E-03
DAV:   4    -0.162690803094E+04   -0.27203E-05   -0.47118E-06  6416   0.452E-03    0.132E-03
DAV:   5    -0.162690803182E+04   -0.87266E-06   -0.24747E-06  6416   0.292E-03
  13 F= -.16269080E+04 E0= -.16269073E+04  d E =-.516089E-04
       N       E                     dE             d eps       ncg     rms          rms(c)
DAV:   1    -0.162690807174E+04   -0.40799E-04   -0.17730E-03 12344   0.548E-02    0.931E-03
DAV:   2    -0.162690806259E+04    0.91524E-05   -0.14881E-05  6424   0.642E-03    0.529E-03
DAV:   3    -0.162690805831E+04    0.42766E-05   -0.61056E-06  6416   0.469E-03    0.294E-03
DAV:   4    -0.162690805528E+04    0.30296E-05   -0.31060E-06  6416   0.385E-03    0.118E-03
DAV:   5    -0.162690805432E+04    0.96618E-06   -0.17020E-06  6416   0.237E-03
  14 F= -.16269081E+04 E0= -.16269073E+04  d E =-.225017E-04
       N       E                     dE             d eps       ncg     rms          rms(c)
DAV:   1    -0.162690808779E+04   -0.32503E-04   -0.35837E-03 12328   0.758E-02    0.802E-03
DAV:   2    -0.162690809069E+04   -0.29056E-05   -0.21967E-05  9000   0.754E-03    0.574E-03
DAV:   3    -0.162690809256E+04   -0.18630E-05   -0.80068E-06  6504   0.445E-03    0.164E-03
DAV:   4    -0.162690809357E+04   -0.10090E-05   -0.36775E-06  6416   0.361E-03    0.703E-04
DAV:   5    -0.162690809352E+04    0.43528E-07   -0.20175E-06  6416   0.255E-03
  15 F= -.16269081E+04 E0= -.16269074E+04  d E =-.392033E-04
       N       E                     dE             d eps       ncg     rms          rms(c)
DAV:   1    -0.162690813041E+04   -0.36843E-04   -0.44303E-03 12296   0.844E-02    0.946E-03
DAV:   2    -0.162690812699E+04    0.34153E-05   -0.31061E-05  8960   0.863E-03    0.651E-03
DAV:   3    -0.162690812397E+04    0.30264E-05   -0.89611E-06  6504   0.499E-03    0.321E-03
DAV:   4    -0.162690812188E+04    0.20844E-05   -0.43517E-06  6416   0.412E-03    0.929E-04
DAV:   5    -0.162690812194E+04   -0.61980E-07   -0.22765E-06  6416   0.280E-03
  16 F= -.16269081E+04 E0= -.16269074E+04  d E =-.284220E-04
       N       E                     dE             d eps       ncg     rms          rms(c)
DAV:   1    -0.162690812530E+04   -0.34145E-05   -0.17336E-04 12224   0.191E-02    0.557E-03
DAV:   2    -0.162690812880E+04   -0.35043E-05   -0.33932E-06  6416   0.286E-03    0.269E-03
DAV:   3    -0.162690813170E+04   -0.29012E-05   -0.16390E-06  6416   0.214E-03    0.123E-03
DAV:   4    -0.162690813308E+04   -0.13754E-05   -0.71660E-07  6416   0.164E-03    0.568E-04
DAV:   5    -0.162690813388E+04   -0.80714E-06   -0.36026E-07  6416   0.105E-03
  17 F= -.16269081E+04 E0= -.16269074E+04  d E =-.119406E-04
       N       E                     dE             d eps       ncg     rms          rms(c)
DAV:   1    -0.162690815818E+04   -0.25100E-04   -0.24559E-03 12280   0.627E-02    0.636E-03
DAV:   2    -0.162690815754E+04    0.64020E-06   -0.13464E-05  6520   0.604E-03    0.459E-03
DAV:   3    -0.162690815617E+04    0.13653E-05   -0.49470E-06  6384   0.337E-03    0.133E-03
DAV:   4    -0.162690815588E+04    0.28756E-06   -0.22825E-06  6416   0.268E-03    0.584E-04
DAV:   5    -0.162690815609E+04   -0.21024E-06   -0.12289E-06  6400   0.194E-03
  18 F= -.16269082E+04 E0= -.16269074E+04  d E =-.222098E-04
       N       E                     dE             d eps       ncg     rms          rms(c)
DAV:   1    -0.162690818535E+04   -0.29468E-04   -0.87555E-03 12196   0.118E-01    0.121E-02
DAV:   2    -0.162690819263E+04   -0.72806E-05   -0.73540E-05 14704   0.115E-02    0.910E-03
DAV:   3    -0.162690819389E+04   -0.12554E-05   -0.10333E-05  6718   0.497E-03    0.237E-03
DAV:   4    -0.162690819511E+04   -0.12226E-05   -0.24238E-06  6416   0.322E-03    0.101E-03
DAV:   5    -0.162690819494E+04    0.17299E-06   -0.92571E-07  6374   0.210E-03
  19 F= -.16269082E+04 E0= -.16269075E+04  d E =-.388434E-04
       N       E                     dE             d eps       ncg     rms          rms(c)
DAV:   1    -0.162690818783E+04    0.72810E-05   -0.19688E-03 12230   0.572E-02    0.782E-03
DAV:   2    -0.162690818106E+04    0.67691E-05   -0.10785E-05  6422   0.559E-03    0.478E-03
DAV:   3    -0.162690817615E+04    0.49080E-05   -0.40186E-06  6384   0.313E-03    0.177E-03
DAV:   4    -0.162690817460E+04    0.15479E-05   -0.15456E-06  6416   0.244E-03    0.884E-04
DAV:   5    -0.162690817425E+04    0.35435E-06   -0.70509E-07  6416   0.165E-03
  20 F= -.16269082E+04 E0= -.16269075E+04  d E =0.206873E-04
       N       E                     dE             d eps       ncg     rms          rms(c)
DAV:   1    -0.162690819415E+04   -0.19547E-04   -0.32029E-03 12228   0.717E-02    0.687E-03
DAV:   2    -0.162690819519E+04   -0.10435E-05   -0.15180E-05  6472   0.647E-03    0.501E-03
DAV:   3    -0.162690819543E+04   -0.23889E-06   -0.56114E-06  6383   0.337E-03    0.707E-04
DAV:   4    -0.162690819560E+04   -0.16760E-06   -0.18897E-06  6416   0.203E-03    0.430E-04
DAV:   5    -0.162690819567E+04   -0.65536E-07   -0.95911E-07  6416   0.156E-03
  21 F= -.16269082E+04 E0= -.16269075E+04  d E =-.214164E-04
       N       E                     dE             d eps       ncg     rms          rms(c)
DAV:   1    -0.162690822309E+04   -0.27490E-04   -0.14105E-02 12144   0.150E-01    0.146E-02
DAV:   2    -0.162690822987E+04   -0.67836E-05   -0.11770E-04 16504   0.144E-02    0.113E-02
DAV:   3    -0.162690822583E+04    0.40436E-05   -0.13082E-05  6877   0.547E-03    0.215E-03
DAV:   4    -0.162690822579E+04    0.41681E-07   -0.25714E-06  6464   0.347E-03    0.131E-03
DAV:   5    -0.162690822582E+04   -0.32710E-07   -0.79915E-07  6414   0.193E-03
  22 F= -.16269082E+04 E0= -.16269075E+04  d E =-.301555E-04
       N       E                     dE             d eps       ncg     rms          rms(c)
DAV:   1    -0.162690822514E+04    0.65193E-06   -0.15314E-03 12228   0.510E-02    0.834E-03
DAV:   2    -0.162690822950E+04   -0.43603E-05   -0.11623E-05  6416   0.549E-03    0.473E-03
DAV:   3    -0.162690823331E+04   -0.38091E-05   -0.46849E-06  6374   0.348E-03    0.211E-03
DAV:   4    -0.162690823530E+04   -0.19954E-05   -0.20699E-06  6416   0.283E-03    0.105E-03
DAV:   5    -0.162690823621E+04   -0.90377E-06   -0.10535E-06  6416   0.190E-03
  23 F= -.16269082E+04 E0= -.16269075E+04  d E =-.103840E-04
       N       E                     dE             d eps       ncg     rms          rms(c)
DAV:   1    -0.162690824628E+04   -0.10980E-04   -0.18030E-04 12208   0.198E-02    0.580E-03
DAV:   2    -0.162690823952E+04    0.67659E-05   -0.24410E-06  6368   0.256E-03    0.282E-03
DAV:   3    -0.162690823578E+04    0.37334E-05   -0.12892E-06  6360   0.189E-03    0.123E-03
DAV:   4    -0.162690823427E+04    0.15106E-05   -0.44180E-07  6344   0.150E-03    0.543E-04
DAV:   5    -0.162690823341E+04    0.86345E-06   -0.17218E-07  6344   0.812E-04
  24 F= -.16269082E+04 E0= -.16269075E+04  d E =0.279722E-05
       N       E                     dE             d eps       ncg     rms          rms(c)
DAV:   1    -0.162690823593E+04   -0.16594E-05   -0.34000E-04 12167   0.233E-02    0.225E-03
DAV:   2    -0.162690823602E+04   -0.83848E-07   -0.17928E-06  6344   0.222E-03    0.165E-03
DAV:   3    -0.162690823602E+04   -0.83555E-08   -0.66050E-07  6319   0.120E-03    0.330E-04
DAV:   4    -0.162690823606E+04   -0.35438E-07   -0.27831E-07  6320   0.893E-04    0.240E-04
DAV:   5    -0.162690823607E+04   -0.10253E-07   -0.15192E-07  6320   0.655E-04
  25 F= -.16269082E+04 E0= -.16269075E+04  d E =-.266073E-05
       N       E                     dE             d eps       ncg     rms          rms(c)
DAV:   1    -0.162690824228E+04   -0.62184E-05   -0.51376E-03 12146   0.907E-02    0.883E-03
DAV:   2    -0.162690824386E+04   -0.15836E-05   -0.28950E-05  9184   0.859E-03    0.651E-03
DAV:   3    -0.162690824355E+04    0.31420E-06   -0.10310E-05  6511   0.467E-03    0.915E-04
DAV:   4    -0.162690824390E+04   -0.35247E-06   -0.36812E-06  6416   0.300E-03    0.647E-04
DAV:   5    -0.162690824405E+04   -0.15206E-06   -0.19297E-06  6391   0.229E-03
  26 F= -.16269082E+04 E0= -.16269075E+04  d E =-.798202E-05
