       N       E                     dE             d eps       ncg     rms          rms(c)
DAV:   1     0.193886421443E+04    0.19389E+04   -0.27680E+05 11172   0.142E+03
DAV:   2    -0.118498853779E+04   -0.31239E+04   -0.30028E+04 12886   0.266E+02
DAV:   3    -0.157716840794E+04   -0.39218E+03   -0.35649E+03 17520   0.823E+01
DAV:   4    -0.160233642065E+04   -0.25168E+02   -0.22681E+02 15856   0.162E+01
DAV:   5    -0.160350103688E+04   -0.11646E+01   -0.11350E+01 16752   0.449E+00    0.378E+01
DAV:   6    -0.156851025668E+04    0.34991E+02   -0.10305E+02 17408   0.142E+01    0.226E+01
DAV:   7    -0.155978498214E+04    0.87253E+01   -0.89493E+01 17456   0.151E+01    0.184E+01
DAV:   8    -0.154796567461E+04    0.11819E+02   -0.65833E+01 16344   0.115E+01    0.112E+01
DAV:   9    -0.154152939153E+04    0.64363E+01   -0.29095E+01 16328   0.831E+00    0.338E+00
DAV:  10    -0.154128866848E+04    0.24072E+00   -0.53056E+00 15832   0.324E+00    0.146E+00
DAV:  11    -0.154129583843E+04   -0.71700E-02   -0.67274E-01 14816   0.123E+00    0.110E+00
DAV:  12    -0.154127312865E+04    0.22710E-01   -0.20442E-01 14880   0.625E-01    0.667E-01
DAV:  13    -0.154126006732E+04    0.13061E-01   -0.70617E-02 13680   0.416E-01    0.371E-01
DAV:  14    -0.154125558599E+04    0.44813E-02   -0.21141E-02 14416   0.220E-01    0.187E-01
DAV:  15    -0.154125452638E+04    0.10596E-02   -0.63236E-03 15712   0.130E-01    0.102E-01
DAV:  16    -0.154125431506E+04    0.21132E-03   -0.23047E-03 15896   0.674E-02    0.564E-02
DAV:  17    -0.154125427585E+04    0.39211E-04   -0.66091E-04 14432   0.378E-02    0.308E-02
DAV:  18    -0.154125426548E+04    0.10370E-04   -0.18930E-04 14552   0.223E-02    0.176E-02
DAV:  19    -0.154125425777E+04    0.77006E-05   -0.60677E-05 11096   0.133E-02
   1 F= -.15412543E+04 E0= -.15412515E+04  d E =-.154125E+04
       N       E                     dE             d eps       ncg     rms          rms(c)
DAV:   1    -0.154491540441E+04   -0.36611E+01   -0.26687E+03 11172   0.799E+01    0.277E+01
DAV:   2    -0.151736518685E+04    0.27550E+02   -0.17025E+02 18416   0.184E+01    0.186E+01
DAV:   3    -0.151025477058E+04    0.71104E+01   -0.10162E+02 18632   0.142E+01    0.155E+01
DAV:   4    -0.150128744741E+04    0.89673E+01   -0.46173E+01 20184   0.890E+00    0.101E+01
DAV:   5    -0.149735124290E+04    0.39362E+01   -0.31449E+01 17872   0.662E+00    0.468E+00
DAV:   6    -0.149675104717E+04    0.60020E+00   -0.69534E+00 17776   0.358E+00    0.315E+00
DAV:   7    -0.149651770222E+04    0.23334E+00   -0.14808E+00 17312   0.163E+00    0.213E+00
DAV:   8    -0.149645024023E+04    0.67462E-01   -0.44189E-01 18392   0.725E-01    0.121E+00
DAV:   9    -0.149643354879E+04    0.16691E-01   -0.28785E-01 17784   0.507E-01    0.528E-01
DAV:  10    -0.149643427204E+04   -0.72325E-03   -0.66617E-02 18152   0.338E-01    0.405E-01
DAV:  11    -0.149642885721E+04    0.54148E-02   -0.25492E-02 18104   0.226E-01    0.215E-01
DAV:  12    -0.149642834813E+04    0.50909E-03   -0.10918E-02 18264   0.118E-01    0.110E-01
DAV:  13    -0.149642884142E+04   -0.49329E-03   -0.28779E-03 17152   0.631E-02    0.711E-02
DAV:  14    -0.149642908547E+04   -0.24405E-03   -0.12682E-03 17304   0.509E-02    0.645E-02
DAV:  15    -0.149642902330E+04    0.62168E-04   -0.72779E-04 17360   0.367E-02    0.343E-02
DAV:  16    -0.149642900324E+04    0.20063E-04   -0.30370E-04 18664   0.204E-02    0.139E-02
DAV:  17    -0.149642900763E+04   -0.43891E-05   -0.35867E-05  8376   0.904E-03
   2 F= -.14964290E+04 E0= -.14964353E+04  d E =0.448253E+02
       N       E                     dE             d eps       ncg     rms          rms(c)
DAV:   1    -0.157462290820E+04   -0.78194E+02   -0.13455E+03 11172   0.628E+01    0.193E+01
DAV:   2    -0.155971749434E+04    0.14905E+02   -0.48087E+01 17176   0.112E+01    0.103E+01
DAV:   3    -0.155739413448E+04    0.23234E+01   -0.31839E+01 18016   0.843E+00    0.869E+00
DAV:   4    -0.155399657178E+04    0.33976E+01   -0.15450E+01 17544   0.576E+00    0.536E+00
DAV:   5    -0.155259906120E+04    0.13975E+01   -0.83865E+00 16112   0.416E+00    0.190E+00
DAV:   6    -0.155249329766E+04    0.10576E+00   -0.17701E+00 14984   0.189E+00    0.950E-01
DAV:   7    -0.155250256059E+04   -0.92629E-02   -0.24766E-01 14968   0.730E-01    0.764E-01
DAV:   8    -0.155250193242E+04    0.62817E-03   -0.56253E-02 15728   0.319E-01    0.441E-01
DAV:   9    -0.155251671520E+04   -0.14783E-01   -0.87588E-02 16432   0.324E-01    0.331E-01
DAV:  10    -0.155251422992E+04    0.24853E-02   -0.15193E-02 15560   0.201E-01    0.169E-01
DAV:  11    -0.155251369568E+04    0.53423E-03   -0.44701E-03 16720   0.895E-02    0.891E-02
DAV:  12    -0.155251382786E+04   -0.13218E-03   -0.26241E-03 16408   0.633E-02    0.494E-02
DAV:  13    -0.155251413645E+04   -0.30859E-03   -0.75901E-04 14272   0.363E-02    0.283E-02
DAV:  14    -0.155251413599E+04    0.45949E-06   -0.14303E-04 13400   0.173E-02    0.150E-02
DAV:  15    -0.155251413032E+04    0.56664E-05   -0.30249E-05  7144   0.857E-03
   3 F= -.15525141E+04 E0= -.15525394E+04  d E =-.560851E+02
       N       E                     dE             d eps       ncg     rms          rms(c)
DAV:   1    -0.155297336053E+04   -0.45922E+00   -0.29886E+01 11172   0.776E+00    0.130E+00
DAV:   2    -0.155294151868E+04    0.31842E-01   -0.49802E-01 16200   0.837E-01    0.768E-01
DAV:   3    -0.155293532397E+04    0.61947E-02   -0.13908E-01 18352   0.543E-01    0.658E-01
DAV:   4    -0.155291570833E+04    0.19616E-01   -0.70832E-02 17448   0.412E-01    0.365E-01
DAV:   5    -0.155291014497E+04    0.55634E-02   -0.35224E-02 15328   0.270E-01    0.131E-01
DAV:   6    -0.155290994968E+04    0.19529E-03   -0.75933E-03 15176   0.129E-01    0.832E-02
DAV:   7    -0.155290989541E+04    0.54270E-04   -0.15890E-03 15824   0.646E-02    0.615E-02
DAV:   8    -0.155290984166E+04    0.53751E-04   -0.64090E-04 16008   0.360E-02    0.341E-02
DAV:   9    -0.155290986110E+04   -0.19439E-04   -0.25577E-04 14608   0.215E-02    0.198E-02
DAV:  10    -0.155290987572E+04   -0.14624E-04   -0.63919E-05 11688   0.124E-02    0.110E-02
DAV:  11    -0.155290987612E+04   -0.40431E-06   -0.16500E-05  6984   0.792E-03
   4 F= -.15529099E+04 E0= -.15529321E+04  d E =-.395746E+00
       N       E                     dE             d eps       ncg     rms          rms(c)
DAV:   1    -0.155297472936E+04   -0.64854E-01   -0.46876E+00 11186   0.294E+00    0.491E-01
DAV:   2    -0.155297986195E+04   -0.51326E-02   -0.12846E-01 17976   0.532E-01    0.437E-01
DAV:   3    -0.155296981359E+04    0.10048E-01   -0.49561E-02 17952   0.349E-01    0.241E-01
DAV:   4    -0.155296755727E+04    0.22563E-02   -0.10344E-02 16384   0.141E-01    0.151E-01
DAV:   5    -0.155296683779E+04    0.71948E-03   -0.44116E-03 15408   0.999E-02    0.870E-02
DAV:   6    -0.155296656165E+04    0.27614E-03   -0.19122E-03 15176   0.690E-02    0.476E-02
DAV:   7    -0.155296646999E+04    0.91661E-04   -0.53767E-04 15464   0.386E-02    0.275E-02
DAV:   8    -0.155296646685E+04    0.31442E-05   -0.13962E-04 14024   0.161E-02    0.163E-02
DAV:   9    -0.155296647247E+04   -0.56203E-05   -0.48492E-05 10056   0.101E-02
   5 F= -.15529665E+04 E0= -.15529888E+04  d E =-.565963E-01
       N       E                     dE             d eps       ncg     rms          rms(c)
DAV:   1    -0.155298846808E+04   -0.22001E-01   -0.23943E+00 11186   0.207E+00    0.244E-01
DAV:   2    -0.155299283956E+04   -0.43715E-02   -0.43543E-02 17480   0.292E-01    0.262E-01
DAV:   3    -0.155298924797E+04    0.35916E-02   -0.13913E-02 17912   0.185E-01    0.134E-01
DAV:   4    -0.155298888179E+04    0.36618E-03   -0.26725E-03 15984   0.694E-02    0.897E-02
DAV:   5    -0.155298872655E+04    0.15525E-03   -0.14548E-03 14880   0.550E-02    0.449E-02
DAV:   6    -0.155298869421E+04    0.32339E-04   -0.54851E-04 16032   0.383E-02    0.250E-02
DAV:   7    -0.155298866998E+04    0.24234E-04   -0.17598E-04 15392   0.210E-02    0.128E-02
DAV:   8    -0.155298866140E+04    0.85733E-05   -0.31271E-05  7360   0.908E-03
   6 F= -.15529887E+04 E0= -.15530105E+04  d E =-.221889E-01
       N       E                     dE             d eps       ncg     rms          rms(c)
DAV:   1    -0.155299839044E+04   -0.97205E-02   -0.58455E-01 11298   0.107E+00    0.213E-01
DAV:   2    -0.155299874394E+04   -0.35350E-03   -0.17956E-02 18056   0.216E-01    0.192E-01
DAV:   3    -0.155299666116E+04    0.20828E-02   -0.90170E-03 18032   0.149E-01    0.101E-01
DAV:   4    -0.155299620382E+04    0.45734E-03   -0.18974E-03 15880   0.597E-02    0.618E-02
DAV:   5    -0.155299601624E+04    0.18758E-03   -0.86724E-04 15408   0.457E-02    0.340E-02
DAV:   6    -0.155299594969E+04    0.66555E-04   -0.33113E-04 15392   0.294E-02    0.193E-02
DAV:   7    -0.155299593111E+04    0.18574E-04   -0.88843E-05 13336   0.159E-02    0.109E-02
DAV:   8    -0.155299593280E+04   -0.16835E-05   -0.20615E-05  6648   0.730E-03
   7 F= -.15529959E+04 E0= -.15530178E+04  d E =-.727140E-02
       N       E                     dE             d eps       ncg     rms          rms(c)
DAV:   1    -0.155300188792E+04   -0.59568E-02   -0.41595E-01 11256   0.877E-01    0.115E-01
DAV:   2    -0.155300255467E+04   -0.66675E-03   -0.67073E-03 17336   0.118E-01    0.118E-01
DAV:   3    -0.155300185713E+04    0.69754E-03   -0.25530E-03 17992   0.801E-02    0.620E-02
DAV:   4    -0.155300179241E+04    0.64716E-04   -0.60898E-04 15416   0.336E-02    0.350E-02
DAV:   5    -0.155300178339E+04    0.90205E-05   -0.29478E-04 15264   0.259E-02    0.168E-02
DAV:   6    -0.155300177959E+04    0.38038E-05   -0.85719E-05 13432   0.162E-02
   8 F= -.15530018E+04 E0= -.15530234E+04  d E =-.584679E-02
       N       E                     dE             d eps       ncg     rms          rms(c)
DAV:   1    -0.155300511723E+04   -0.33338E-02   -0.28883E-01 11256   0.717E-01    0.977E-02
DAV:   2    -0.155300587948E+04   -0.76225E-03   -0.64545E-03 18056   0.129E-01    0.120E-01
DAV:   3    -0.155300496296E+04    0.91652E-03   -0.29738E-03 17896   0.860E-02    0.495E-02
DAV:   4    -0.155300488704E+04    0.75924E-04   -0.41952E-04 15880   0.272E-02    0.339E-02
DAV:   5    -0.155300484406E+04    0.42978E-04   -0.19862E-04 15312   0.216E-02    0.197E-02
DAV:   6    -0.155300482341E+04    0.20648E-04   -0.89250E-05 13680   0.161E-02    0.109E-02
DAV:   7    -0.155300481672E+04    0.66885E-05   -0.24013E-05  7032   0.931E-03
   9 F= -.15530048E+04 E0= -.15530264E+04  d E =-.303713E-02
       N       E                     dE             d eps       ncg     rms          rms(c)
DAV:   1    -0.155300635256E+04   -0.15292E-02   -0.13805E-01 11298   0.500E-01    0.607E-02
DAV:   2    -0.155300663136E+04   -0.27880E-03   -0.20690E-03 17352   0.676E-02    0.685E-02
DAV:   3    -0.155300638110E+04    0.25026E-03   -0.83524E-04 17928   0.461E-02    0.335E-02
DAV:   4    -0.155300637754E+04    0.35648E-05   -0.16983E-04 14592   0.179E-02    0.177E-02
DAV:   5    -0.155300638200E+04   -0.44666E-05   -0.68711E-05 12392   0.135E-02
  10 F= -.15530064E+04 E0= -.15530279E+04  d E =-.156528E-02
       N       E                     dE             d eps       ncg     rms          rms(c)
DAV:   1    -0.155300743818E+04   -0.10606E-02   -0.55188E-02 11312   0.320E-01    0.533E-02
DAV:   2    -0.155300748801E+04   -0.49829E-04   -0.12359E-03 17968   0.568E-02    0.534E-02
DAV:   3    -0.155300731749E+04    0.17052E-03   -0.61010E-04 17824   0.393E-02    0.263E-02
DAV:   4    -0.155300727960E+04    0.37883E-04   -0.11560E-04 14560   0.145E-02    0.162E-02
DAV:   5    -0.155300725628E+04    0.23327E-04   -0.48659E-05  9872   0.119E-02    0.869E-03
DAV:   6    -0.155300724789E+04    0.83867E-05   -0.15536E-05  6848   0.843E-03
  11 F= -.15530072E+04 E0= -.15530287E+04  d E =-.865888E-03
       N       E                     dE             d eps       ncg     rms          rms(c)
DAV:   1    -0.155300804304E+04   -0.78676E-03   -0.72383E-02 11284   0.357E-01    0.374E-02
DAV:   2    -0.155300820107E+04   -0.15803E-03   -0.10153E-03 17528   0.475E-02    0.473E-02
DAV:   3    -0.155300807644E+04    0.12463E-03   -0.38847E-04 17850   0.314E-02    0.221E-02
DAV:   4    -0.155300807674E+04   -0.29307E-06   -0.63844E-05 11744   0.113E-02    0.120E-02
DAV:   5    -0.155300807917E+04   -0.24312E-05   -0.22669E-05  7184   0.912E-03
  12 F= -.15530081E+04 E0= -.15530295E+04  d E =-.831277E-03
       N       E                     dE             d eps       ncg     rms          rms(c)
DAV:   1    -0.155300864157E+04   -0.56483E-03   -0.47947E-02 11312   0.292E-01    0.356E-02
DAV:   2    -0.155300870857E+04   -0.66999E-04   -0.79371E-04 17728   0.432E-02    0.404E-02
DAV:   3    -0.155300861144E+04    0.97126E-04   -0.32348E-04 17544   0.288E-02    0.192E-02
DAV:   4    -0.155300859398E+04    0.17461E-04   -0.46441E-05  9552   0.985E-03    0.120E-02
DAV:   5    -0.155300858255E+04    0.11423E-04   -0.21031E-05  6784   0.855E-03    0.645E-03
DAV:   6    -0.155300857780E+04    0.47550E-05   -0.76023E-06  6408   0.634E-03
  13 F= -.15530086E+04 E0= -.15530300E+04  d E =-.498633E-03
       N       E                     dE             d eps       ncg     rms          rms(c)
DAV:   1    -0.155300887237E+04   -0.28981E-03   -0.18113E-02 11312   0.182E-01    0.228E-02
DAV:   2    -0.155300889674E+04   -0.24373E-04   -0.20458E-04 16520   0.192E-02    0.187E-02
DAV:   3    -0.155300888662E+04    0.10123E-04   -0.48146E-05 10128   0.122E-02    0.125E-02
DAV:   4    -0.155300889314E+04   -0.65233E-05   -0.19798E-05  6432   0.753E-03    0.566E-03
DAV:   5    -0.155300889832E+04   -0.51745E-05   -0.77217E-06  6216   0.556E-03
  14 F= -.15530089E+04 E0= -.15530303E+04  d E =-.320516E-03
       N       E                     dE             d eps       ncg     rms          rms(c)
DAV:   1    -0.155300923113E+04   -0.33799E-03   -0.25527E-02 11312   0.212E-01    0.234E-02
DAV:   2    -0.155300926233E+04   -0.31199E-04   -0.34964E-04 17528   0.284E-02    0.269E-02
DAV:   3    -0.155300922044E+04    0.41891E-04   -0.13074E-04 15608   0.187E-02    0.133E-02
DAV:   4    -0.155300921132E+04    0.91181E-05   -0.19090E-05  6720   0.719E-03    0.787E-03
DAV:   5    -0.155300920544E+04    0.58777E-05   -0.10337E-05  6224   0.635E-03
  15 F= -.15530092E+04 E0= -.15530306E+04  d E =-.307125E-03
       N       E                     dE             d eps       ncg     rms          rms(c)
DAV:   1    -0.155300947419E+04   -0.26287E-03   -0.27738E-02 11298   0.220E-01    0.206E-02
DAV:   2    -0.155300950783E+04   -0.33642E-04   -0.28224E-04 16672   0.224E-02    0.202E-02
DAV:   3    -0.155300949261E+04    0.15219E-04   -0.53160E-05 10657   0.129E-02    0.131E-02
DAV:   4    -0.155300949526E+04   -0.26478E-05   -0.21704E-05  6392   0.733E-03    0.555E-03
DAV:   5    -0.155300949785E+04   -0.25871E-05   -0.81128E-06  6208   0.579E-03
  16 F= -.15530095E+04 E0= -.15530309E+04  d E =-.292407E-03
       N       E                     dE             d eps       ncg     rms          rms(c)
DAV:   1    -0.155300966100E+04   -0.16574E-03   -0.93384E-03 11312   0.130E-01    0.171E-02
DAV:   2    -0.155300965579E+04    0.52157E-05   -0.13006E-04 15664   0.173E-02    0.155E-02
DAV:   3    -0.155300964174E+04    0.14049E-04   -0.42575E-05  9584   0.121E-02    0.883E-03
DAV:   4    -0.155300963468E+04    0.70610E-05   -0.12853E-05  6176   0.607E-03    0.525E-03
DAV:   5    -0.155300962854E+04    0.61390E-05   -0.66924E-06  6032   0.499E-03
  17 F= -.15530096E+04 E0= -.15530311E+04  d E =-.130689E-03
       N       E                     dE             d eps       ncg     rms          rms(c)
DAV:   1    -0.155300977575E+04   -0.14108E-03   -0.10711E-02 11312   0.137E-01    0.140E-02
DAV:   2    -0.155300978926E+04   -0.13512E-04   -0.99619E-05 14424   0.132E-02    0.118E-02
DAV:   3    -0.155300978647E+04    0.27972E-05   -0.15826E-05  7024   0.762E-03    0.852E-03
DAV:   4    -0.155300979073E+04   -0.42599E-05   -0.10186E-05  6000   0.502E-03    0.359E-03
DAV:   5    -0.155300979302E+04   -0.22905E-05   -0.40905E-06  5992   0.400E-03
  18 F= -.15530098E+04 E0= -.15530312E+04  d E =-.164480E-03
       N       E                     dE             d eps       ncg     rms          rms(c)
DAV:   1    -0.155300995794E+04   -0.16721E-03   -0.15453E-02 11298   0.164E-01    0.154E-02
DAV:   2    -0.155300996582E+04   -0.78875E-05   -0.15416E-04 15888   0.168E-02    0.145E-02
DAV:   3    -0.155300995686E+04    0.89643E-05   -0.24184E-05  7889   0.988E-03    0.968E-03
DAV:   4    -0.155300995218E+04    0.46786E-05   -0.13279E-05  6032   0.559E-03    0.488E-03
DAV:   5    -0.155300994959E+04    0.25945E-05   -0.61781E-06  5992   0.499E-03
  19 F= -.15530099E+04 E0= -.15530314E+04  d E =-.156569E-03
       N       E                     dE             d eps       ncg     rms          rms(c)
DAV:   1    -0.155301004859E+04   -0.96412E-04   -0.79902E-03 11312   0.119E-01    0.118E-02
DAV:   2    -0.155301005932E+04   -0.10725E-04   -0.69513E-05 12520   0.112E-02    0.941E-03
DAV:   3    -0.155301005876E+04    0.56198E-06   -0.12782E-05  6624   0.653E-03    0.701E-03
DAV:   4    -0.155301006289E+04   -0.41379E-05   -0.65524E-06  5928   0.411E-03    0.279E-03
DAV:   5    -0.155301006516E+04   -0.22660E-05   -0.28572E-06  5880   0.315E-03
  20 F= -.15530101E+04 E0= -.15530315E+04  d E =-.115574E-03
       N       E                     dE             d eps       ncg     rms          rms(c)
DAV:   1    -0.155301015499E+04   -0.92093E-04   -0.50745E-03 11312   0.948E-02    0.107E-02
DAV:   2    -0.155301014918E+04    0.58119E-05   -0.44817E-05  9976   0.975E-03    0.793E-03
DAV:   3    -0.155301014666E+04    0.25168E-05   -0.12382E-05  6528   0.659E-03    0.588E-03
DAV:   4    -0.155301014228E+04    0.43822E-05   -0.50133E-06  5880   0.378E-03    0.306E-03
DAV:   5    -0.155301013931E+04    0.29649E-05   -0.29031E-06  5880   0.301E-03
  21 F= -.15530101E+04 E0= -.15530316E+04  d E =-.741516E-04
       N       E                     dE             d eps       ncg     rms          rms(c)
DAV:   1    -0.155301022765E+04   -0.85374E-04   -0.77504E-03 11284   0.116E-01    0.106E-02
DAV:   2    -0.155301023543E+04   -0.77825E-05   -0.68821E-05 12400   0.101E-02    0.835E-03
DAV:   3    -0.155301023566E+04   -0.22541E-06   -0.81533E-06  6170   0.514E-03    0.660E-03
DAV:   4    -0.155301023783E+04   -0.21671E-05   -0.51791E-06  5880   0.385E-03    0.212E-03
DAV:   5    -0.155301023868E+04   -0.85700E-06   -0.19720E-06  5880   0.275E-03
  22 F= -.15530102E+04 E0= -.15530317E+04  d E =-.993710E-04
       N       E                     dE             d eps       ncg     rms          rms(c)
DAV:   1    -0.155301032195E+04   -0.84128E-04   -0.68128E-03 11284   0.109E-01    0.103E-02
DAV:   2    -0.155301032026E+04    0.16987E-05   -0.57747E-05 11080   0.996E-03    0.793E-03
DAV:   3    -0.155301031869E+04    0.15688E-05   -0.10401E-05  6200   0.578E-03    0.619E-03
DAV:   4    -0.155301031518E+04    0.35059E-05   -0.44319E-06  5880   0.357E-03    0.297E-03
DAV:   5    -0.155301031307E+04    0.21069E-05   -0.24654E-06  5880   0.287E-03
  23 F= -.15530103E+04 E0= -.15530317E+04  d E =-.743906E-04
       N       E                     dE             d eps       ncg     rms          rms(c)
DAV:   1    -0.155301036097E+04   -0.45786E-04   -0.31188E-03 11312   0.741E-02    0.758E-03
DAV:   2    -0.155301036582E+04   -0.48574E-05   -0.19312E-05  7024   0.667E-03    0.531E-03
DAV:   3    -0.155301036735E+04   -0.15286E-05   -0.73391E-06  5984   0.437E-03    0.408E-03
DAV:   4    -0.155301037028E+04   -0.29230E-05   -0.44413E-06  5880   0.339E-03    0.159E-03
DAV:   5    -0.155301037154E+04   -0.12625E-05   -0.24080E-06  5880   0.246E-03
  24 F= -.15530104E+04 E0= -.15530318E+04  d E =-.584648E-04
       N       E                     dE             d eps       ncg     rms          rms(c)
DAV:   1    -0.155301043405E+04   -0.63778E-04   -0.46410E-03 11284   0.898E-02    0.890E-03
DAV:   2    -0.155301043147E+04    0.25816E-05   -0.36944E-05  9320   0.847E-03    0.661E-03
DAV:   3    -0.155301043051E+04    0.95802E-06   -0.97533E-06  6042   0.542E-03    0.517E-03
DAV:   4    -0.155301042747E+04    0.30417E-05   -0.49101E-06  5880   0.363E-03    0.235E-03
DAV:   5    -0.155301042605E+04    0.14204E-05   -0.27522E-06  5873   0.278E-03
  25 F= -.15530104E+04 E0= -.15530319E+04  d E =-.545141E-04
       N       E                     dE             d eps       ncg     rms          rms(c)
DAV:   1    -0.155301046790E+04   -0.40427E-04   -0.30015E-03 11284   0.722E-02    0.682E-03
DAV:   2    -0.155301047166E+04   -0.37570E-05   -0.18904E-05  6640   0.654E-03    0.501E-03
DAV:   3    -0.155301047282E+04   -0.11646E-05   -0.72532E-06  5896   0.418E-03    0.383E-03
DAV:   4    -0.155301047511E+04   -0.22854E-05   -0.44912E-06  5859   0.331E-03    0.136E-03
DAV:   5    -0.155301047594E+04   -0.83131E-06   -0.24065E-06  5859   0.250E-03
  26 F= -.15530105E+04 E0= -.15530319E+04  d E =-.498861E-04
       N       E                     dE             d eps       ncg     rms          rms(c)
DAV:   1    -0.155301052607E+04   -0.50967E-04   -0.39376E-03 11284   0.826E-02    0.790E-03
DAV:   2    -0.155301052371E+04    0.23679E-05   -0.26526E-05  8200   0.771E-03    0.576E-03
DAV:   3    -0.155301052317E+04    0.54000E-06   -0.94053E-06  6009   0.504E-03    0.450E-03
DAV:   4    -0.155301052072E+04    0.24448E-05   -0.52961E-06  5880   0.372E-03    0.190E-03
DAV:   5    -0.155301051990E+04    0.82524E-06   -0.30328E-06  5880   0.285E-03
  27 F= -.15530105E+04 E0= -.15530320E+04  d E =-.439578E-04
       N       E                     dE             d eps       ncg     rms          rms(c)
DAV:   1    -0.155301054840E+04   -0.27679E-04   -0.18564E-03 11284   0.569E-02    0.581E-03
DAV:   2    -0.155301055202E+04   -0.36151E-05   -0.13246E-05  5886   0.549E-03    0.414E-03
DAV:   3    -0.155301055320E+04   -0.11848E-05   -0.53906E-06  5831   0.376E-03    0.318E-03
DAV:   4    -0.155301055527E+04   -0.20655E-05   -0.32042E-06  5838   0.286E-03    0.136E-03
DAV:   5    -0.155301055630E+04   -0.10318E-05   -0.18446E-06  5838   0.223E-03
  28 F= -.15530106E+04 E0= -.15530320E+04  d E =-.364019E-04
       N       E                     dE             d eps       ncg     rms          rms(c)
DAV:   1    -0.155301059274E+04   -0.37476E-04   -0.25031E-03 11284   0.658E-02    0.621E-03
DAV:   2    -0.155301059109E+04    0.16503E-05   -0.16036E-05  7264   0.613E-03    0.455E-03
DAV:   3    -0.155301059075E+04    0.34425E-06   -0.63151E-06  5952   0.405E-03    0.353E-03
DAV:   4    -0.155301058903E+04    0.17174E-05   -0.36905E-06  5838   0.307E-03    0.137E-03
DAV:   5    -0.155301058857E+04    0.45990E-06   -0.21062E-06  5838   0.238E-03
  29 F= -.15530106E+04 E0= -.15530320E+04  d E =-.322726E-04
       N       E                     dE             d eps       ncg     rms          rms(c)
DAV:   1    -0.155301062408E+04   -0.35050E-04   -0.35413E-03 11284   0.783E-02    0.701E-03
DAV:   2    -0.155301062736E+04   -0.32814E-05   -0.22423E-05  7576   0.696E-03    0.520E-03
DAV:   3    -0.155301062865E+04   -0.12910E-05   -0.82249E-06  5897   0.431E-03    0.373E-03
DAV:   4    -0.155301063034E+04   -0.16853E-05   -0.49690E-06  5838   0.359E-03    0.123E-03
DAV:   5    -0.155301063086E+04   -0.51924E-06   -0.26773E-06  5838   0.265E-03
  30 F= -.15530106E+04 E0= -.15530321E+04  d E =-.422869E-04
       N       E                     dE             d eps       ncg     rms          rms(c)
DAV:   1    -0.155301065375E+04   -0.23408E-04   -0.10602E-03 11284   0.433E-02    0.520E-03
DAV:   2    -0.155301065005E+04    0.36955E-05   -0.89860E-06  5796   0.471E-03    0.339E-03
DAV:   3    -0.155301064919E+04    0.86221E-06   -0.38879E-06  5789   0.359E-03    0.268E-03
DAV:   4    -0.155301064734E+04    0.18535E-05   -0.20920E-06  5796   0.247E-03    0.136E-03
DAV:   5    -0.155301064620E+04    0.11371E-05   -0.12917E-06  5796   0.190E-03
  31 F= -.15530106E+04 E0= -.15530321E+04  d E =-.153400E-04
       N       E                     dE             d eps       ncg     rms          rms(c)
DAV:   1    -0.155301066755E+04   -0.20210E-04   -0.15133E-03 11284   0.512E-02    0.480E-03
DAV:   2    -0.155301066967E+04   -0.21221E-05   -0.96111E-06  6220   0.468E-03    0.358E-03
DAV:   3    -0.155301067033E+04   -0.66399E-06   -0.37861E-06  5796   0.302E-03    0.275E-03
DAV:   4    -0.155301067177E+04   -0.14405E-05   -0.24078E-06  5796   0.241E-03    0.865E-04
DAV:   5    -0.155301067218E+04   -0.40602E-06   -0.12807E-06  5796   0.185E-03
  32 F= -.15530107E+04 E0= -.15530321E+04  d E =-.259800E-04
       N       E                     dE             d eps       ncg     rms          rms(c)
DAV:   1    -0.155301070643E+04   -0.34661E-04   -0.38969E-03 11284   0.820E-02    0.722E-03
DAV:   2    -0.155301070588E+04    0.55810E-06   -0.23589E-05  8000   0.720E-03    0.535E-03
DAV:   3    -0.155301070557E+04    0.30587E-06   -0.84523E-06  5992   0.440E-03    0.376E-03
DAV:   4    -0.155301070431E+04    0.12576E-05   -0.48979E-06  5880   0.364E-03    0.126E-03
DAV:   5    -0.155301070424E+04    0.71486E-07   -0.26835E-06  5880   0.265E-03
  33 F= -.15530107E+04 E0= -.15530321E+04  d E =-.320621E-04
       N       E                     dE             d eps       ncg     rms          rms(c)
DAV:   1    -0.155301071489E+04   -0.10577E-04   -0.86417E-04 11284   0.395E-02    0.520E-03
DAV:   2    -0.155301071870E+04   -0.38156E-05   -0.78118E-06  5775   0.434E-03    0.325E-03
DAV:   3    -0.155301072007E+04   -0.13704E-05   -0.34429E-06  5768   0.336E-03    0.259E-03
DAV:   4    -0.155301072184E+04   -0.17684E-05   -0.18568E-06  5775   0.236E-03    0.130E-03
DAV:   5    -0.155301072318E+04   -0.13404E-05   -0.11418E-06  5775   0.178E-03
  34 F= -.15530107E+04 E0= -.15530322E+04  d E =-.189431E-04
       N       E                     dE             d eps       ncg     rms          rms(c)
DAV:   1    -0.155301074100E+04   -0.19153E-04   -0.77186E-04 11284   0.369E-02    0.426E-03
DAV:   2    -0.155301073828E+04    0.27118E-05   -0.56865E-06  5775   0.367E-03    0.279E-03
DAV:   3    -0.155301073744E+04    0.84353E-06   -0.24110E-06  5768   0.264E-03    0.215E-03
DAV:   4    -0.155301073613E+04    0.13064E-05   -0.13020E-06  5775   0.193E-03    0.107E-03
DAV:   5    -0.155301073530E+04    0.83787E-06   -0.80694E-07  5775   0.143E-03
  35 F= -.15530107E+04 E0= -.15530322E+04  d E =-.121132E-04
       N       E                     dE             d eps       ncg     rms          rms(c)
DAV:   1    -0.155301075598E+04   -0.19841E-04   -0.21667E-03 11284   0.611E-02    0.531E-03
DAV:   2    -0.155301075687E+04   -0.89066E-06   -0.12495E-05  6923   0.531E-03    0.399E-03
DAV:   3    -0.155301075723E+04   -0.36770E-06   -0.48496E-06  5883   0.325E-03    0.269E-03
DAV:   4    -0.155301075750E+04   -0.26198E-06   -0.29626E-06  5817   0.280E-03    0.841E-04
DAV:   5    -0.155301075762E+04   -0.12270E-06   -0.15545E-06  5817   0.201E-03
  36 F= -.15530108E+04 E0= -.15530322E+04  d E =-.223216E-04
       N       E                     dE             d eps       ncg     rms          rms(c)
DAV:   1    -0.155301081827E+04   -0.60770E-04   -0.31141E-02 11186   0.232E-01    0.203E-02
DAV:   2    -0.155301082965E+04   -0.11387E-04   -0.27926E-04 16648   0.196E-02    0.155E-02
DAV:   3    -0.155301082360E+04    0.60546E-05   -0.15042E-05  7050   0.710E-03    0.105E-02
DAV:   4    -0.155301081840E+04    0.51926E-05   -0.11523E-05  6568   0.714E-03    0.502E-03
DAV:   5    -0.155301081584E+04    0.25680E-05   -0.52855E-06  6024   0.506E-03
  37 F= -.15530108E+04 E0= -.15530322E+04  d E =-.582184E-04
       N       E                     dE             d eps       ncg     rms          rms(c)
DAV:   1    -0.155301077681E+04    0.41598E-04   -0.11725E-02 11214   0.143E-01    0.139E-02
DAV:   2    -0.155301078479E+04   -0.79865E-05   -0.88200E-05 14096   0.118E-02    0.101E-02
DAV:   3    -0.155301078582E+04   -0.10255E-05   -0.88113E-06  5884   0.546E-03    0.723E-03
DAV:   4    -0.155301078705E+04   -0.12268E-05   -0.53122E-06  5866   0.487E-03    0.288E-03
DAV:   5    -0.155301078831E+04   -0.12616E-05   -0.23719E-06  5775   0.309E-03
  38 F= -.15530108E+04 E0= -.15530322E+04  d E =0.275293E-04
       N       E                     dE             d eps       ncg     rms          rms(c)
DAV:   1    -0.155301081227E+04   -0.25221E-04   -0.40680E-03 11242   0.839E-02    0.735E-03
DAV:   2    -0.155301081220E+04    0.64360E-07   -0.18950E-05  6585   0.677E-03    0.541E-03
DAV:   3    -0.155301081188E+04    0.32506E-06   -0.66695E-06  5796   0.388E-03    0.342E-03
DAV:   4    -0.155301081125E+04    0.62766E-06   -0.39013E-06  5796   0.344E-03    0.106E-03
DAV:   5    -0.155301081135E+04   -0.10190E-06   -0.18421E-06  5796   0.218E-03
  39 F= -.15530108E+04 E0= -.15530322E+04  d E =-.230438E-04
       N       E                     dE             d eps       ncg     rms          rms(c)
DAV:   1    -0.155301085294E+04   -0.41696E-04   -0.31428E-02 11186   0.233E-01    0.197E-02
DAV:   2    -0.155301086953E+04   -0.16589E-04   -0.27651E-04 16560   0.194E-02    0.154E-02
DAV:   3    -0.155301086405E+04    0.54851E-05   -0.15355E-05  6858   0.672E-03    0.795E-03
DAV:   4    -0.155301086256E+04    0.14914E-05   -0.97407E-06  6528   0.699E-03    0.410E-03
DAV:   5    -0.155301086143E+04    0.11309E-05   -0.35842E-06  5913   0.462E-03
  40 F= -.15530109E+04 E0= -.15530323E+04  d E =-.500756E-04
       N       E                     dE             d eps       ncg     rms          rms(c)
DAV:   1    -0.155301087565E+04   -0.13096E-04   -0.12544E-02 11200   0.147E-01    0.120E-02
DAV:   2    -0.155301088333E+04   -0.76772E-05   -0.11076E-04 15192   0.123E-02    0.944E-03
DAV:   3    -0.155301088210E+04    0.12265E-05   -0.65960E-06  6019   0.452E-03    0.602E-03
DAV:   4    -0.155301088166E+04    0.44346E-06   -0.45948E-06  5920   0.449E-03    0.273E-03
DAV:   5    -0.155301088130E+04    0.35606E-06   -0.18784E-06  5852   0.335E-03
  41 F= -.15530109E+04 E0= -.15530323E+04  d E =-.198781E-04
       N       E                     dE             d eps       ncg     rms          rms(c)
DAV:   1    -0.155301088712E+04   -0.54629E-05   -0.54898E-03 11214   0.975E-02    0.793E-03
DAV:   2    -0.155301088855E+04   -0.14236E-05   -0.33927E-05  8736   0.823E-03    0.603E-03
DAV:   3    -0.155301088849E+04    0.56836E-07   -0.95147E-06  5939   0.458E-03    0.375E-03
DAV:   4    -0.155301088822E+04    0.27267E-06   -0.50936E-06  5838   0.380E-03    0.166E-03
DAV:   5    -0.155301088823E+04   -0.15969E-07   -0.27732E-06  5838   0.284E-03
  42 F= -.15530109E+04 E0= -.15530323E+04  d E =-.692901E-05
