       N       E                     dE             d eps       ncg     rms          rms(c)
DAV:   1     0.225108382615E+04    0.22511E+04   -0.29332E+05 11736   0.143E+03
DAV:   2    -0.119608025375E+04   -0.34472E+04   -0.33082E+04 13548   0.302E+02
DAV:   3    -0.163516398840E+04   -0.43908E+03   -0.40711E+03 18008   0.820E+01
DAV:   4    -0.166015436183E+04   -0.24990E+02   -0.23391E+02 16400   0.175E+01
DAV:   5    -0.166124366868E+04   -0.10893E+01   -0.10707E+01 18072   0.419E+00    0.416E+01
DAV:   6    -0.161802114395E+04    0.43223E+02   -0.13275E+02 17784   0.159E+01    0.234E+01
DAV:   7    -0.160708566216E+04    0.10935E+02   -0.96837E+01 18840   0.161E+01    0.181E+01
DAV:   8    -0.159376493937E+04    0.13321E+02   -0.60263E+01 16800   0.119E+01    0.872E+00
DAV:   9    -0.159004127572E+04    0.37237E+01   -0.23923E+01 16456   0.741E+00    0.268E+00
DAV:  10    -0.159006511844E+04   -0.23843E-01   -0.38507E+00 16416   0.287E+00    0.174E+00
DAV:  11    -0.159004297253E+04    0.22146E-01   -0.53435E-01 15904   0.110E+00    0.126E+00
DAV:  12    -0.159001437592E+04    0.28597E-01   -0.27170E-01 14448   0.757E-01    0.641E-01
DAV:  13    -0.159000013379E+04    0.14242E-01   -0.57048E-02 14360   0.406E-01    0.330E-01
DAV:  14    -0.158999711085E+04    0.30229E-02   -0.17808E-02 14400   0.182E-01    0.134E-01
DAV:  15    -0.158999675145E+04    0.35939E-03   -0.36327E-03 15936   0.949E-02    0.778E-02
DAV:  16    -0.158999660024E+04    0.15121E-03   -0.14908E-03 15416   0.621E-02    0.390E-02
DAV:  17    -0.158999659023E+04    0.10014E-04   -0.41596E-04 14280   0.333E-02    0.177E-02
DAV:  18    -0.158999657906E+04    0.11166E-04   -0.95768E-05 13496   0.158E-02    0.101E-02
DAV:  19    -0.158999657366E+04    0.54043E-05   -0.24083E-05  7864   0.903E-03
   1 F= -.15899966E+04 E0= -.15900010E+04  d E =-.159000E+04
       N       E                     dE             d eps       ncg     rms          rms(c)
DAV:   1    -0.159460694530E+04   -0.46104E+01   -0.13347E+03 11704   0.546E+01    0.194E+01
DAV:   2    -0.157978541310E+04    0.14822E+02   -0.78184E+01 17992   0.119E+01    0.108E+01
DAV:   3    -0.157599050258E+04    0.37949E+01   -0.41537E+01 19512   0.940E+00    0.800E+00
DAV:   4    -0.157304224965E+04    0.29483E+01   -0.14909E+01 19576   0.585E+00    0.502E+00
DAV:   5    -0.157185571532E+04    0.11865E+01   -0.80798E+00 16888   0.382E+00    0.167E+00
DAV:   6    -0.157179802964E+04    0.57686E-01   -0.13672E+00 16232   0.179E+00    0.112E+00
DAV:   7    -0.157177410979E+04    0.23920E-01   -0.30260E-01 15336   0.850E-01    0.738E-01
DAV:   8    -0.157177164968E+04    0.24601E-02   -0.99602E-02 17560   0.381E-01    0.394E-01
DAV:   9    -0.157177760057E+04   -0.59509E-02   -0.54527E-02 17448   0.265E-01    0.262E-01
DAV:  10    -0.157177729383E+04    0.30674E-03   -0.13084E-02 17144   0.196E-01    0.192E-01
DAV:  11    -0.157177596053E+04    0.13333E-02   -0.66219E-03 19072   0.113E-01    0.799E-02
DAV:  12    -0.157177596833E+04   -0.78065E-05   -0.27657E-03 17840   0.604E-02    0.444E-02
DAV:  13    -0.157177609941E+04   -0.13108E-03   -0.48907E-04 16056   0.313E-02    0.266E-02
DAV:  14    -0.157177609430E+04    0.51083E-05   -0.17207E-04 15536   0.208E-02    0.133E-02
DAV:  15    -0.157177609750E+04   -0.31989E-05   -0.45008E-05  9592   0.985E-03
   2 F= -.15717761E+04 E0= -.15717873E+04  d E =0.182205E+02
       N       E                     dE             d eps       ncg     rms          rms(c)
DAV:   1    -0.160608890463E+04   -0.34313E+02   -0.59021E+02 11704   0.403E+01    0.137E+01
DAV:   2    -0.159786309069E+04    0.82258E+01   -0.22098E+01 16662   0.727E+00    0.642E+00
DAV:   3    -0.159678888211E+04    0.10742E+01   -0.11582E+01 17312   0.525E+00    0.511E+00
DAV:   4    -0.159537210345E+04    0.14168E+01   -0.50244E+00 17656   0.406E+00    0.253E+00
DAV:   5    -0.159507280161E+04    0.29930E+00   -0.25564E+00 16080   0.238E+00    0.834E-01
DAV:   6    -0.159506925328E+04    0.35483E-02   -0.36958E-01 14432   0.975E-01    0.568E-01
DAV:   7    -0.159507072958E+04   -0.14763E-02   -0.65226E-02 15672   0.387E-01    0.405E-01
DAV:   8    -0.159507420112E+04   -0.34715E-02   -0.25242E-02 15760   0.199E-01    0.190E-01
DAV:   9    -0.159507966197E+04   -0.54609E-02   -0.15342E-02 14944   0.151E-01    0.146E-01
DAV:  10    -0.159507908895E+04    0.57302E-03   -0.32681E-03 15136   0.892E-02    0.620E-02
DAV:  11    -0.159507914454E+04   -0.55587E-04   -0.12104E-03 17128   0.477E-02    0.356E-02
DAV:  12    -0.159507940901E+04   -0.26447E-03   -0.73679E-04 16520   0.368E-02    0.411E-02
DAV:  13    -0.159507940413E+04    0.48747E-05   -0.19569E-04 15928   0.191E-02    0.153E-02
DAV:  14    -0.159507939557E+04    0.85591E-05   -0.37944E-05  8920   0.863E-03
   3 F= -.15950794E+04 E0= -.15950639E+04  d E =-.233033E+02
       N       E                     dE             d eps       ncg     rms          rms(c)
DAV:   1    -0.159518994914E+04   -0.11055E+00   -0.15243E+01 11704   0.509E+00    0.656E-01
DAV:   2    -0.159521139048E+04   -0.21441E-01   -0.30930E-01 17832   0.804E-01    0.578E-01
DAV:   3    -0.159519347749E+04    0.17913E-01   -0.88365E-02 18752   0.502E-01    0.331E-01
DAV:   4    -0.159519095416E+04    0.25233E-02   -0.15295E-02 16888   0.185E-01    0.210E-01
DAV:   5    -0.159519009336E+04    0.86080E-03   -0.81075E-03 16048   0.143E-01    0.884E-02
DAV:   6    -0.159518981468E+04    0.27868E-03   -0.27014E-03 16200   0.911E-02    0.467E-02
DAV:   7    -0.159518975455E+04    0.60132E-04   -0.66246E-04 16184   0.396E-02    0.277E-02
DAV:   8    -0.159518973429E+04    0.20263E-04   -0.15484E-04 14536   0.179E-02    0.166E-02
DAV:   9    -0.159518972885E+04    0.54389E-05   -0.55261E-05 11608   0.106E-02
   4 F= -.15951897E+04 E0= -.15951749E+04  d E =-.110333E+00
       N       E                     dE             d eps       ncg     rms          rms(c)
DAV:   1    -0.159521772495E+04   -0.27991E-01   -0.43214E+00 11704   0.273E+00    0.431E-01
DAV:   2    -0.159522547357E+04   -0.77486E-02   -0.10859E-01 18168   0.545E-01    0.418E-01
DAV:   3    -0.159521327726E+04    0.12196E-01   -0.46805E-02 18560   0.368E-01    0.193E-01
DAV:   4    -0.159521216300E+04    0.11143E-02   -0.59432E-03 16560   0.115E-01    0.120E-01
DAV:   5    -0.159521177029E+04    0.39271E-03   -0.28871E-03 15904   0.876E-02    0.615E-02
DAV:   6    -0.159521161370E+04    0.15659E-03   -0.11506E-03 15872   0.603E-02    0.324E-02
DAV:   7    -0.159521158613E+04    0.27572E-04   -0.29244E-04 15160   0.270E-02    0.199E-02
DAV:   8    -0.159521158808E+04   -0.19535E-05   -0.73067E-05 12712   0.121E-02
   5 F= -.15952116E+04 E0= -.15951970E+04  d E =-.218592E-01
       N       E                     dE             d eps       ncg     rms          rms(c)
DAV:   1    -0.159521958778E+04   -0.80017E-02   -0.30915E-01 11848   0.899E-01    0.291E-01
DAV:   2    -0.159521593850E+04    0.36493E-02   -0.10598E-02 16544   0.148E-01    0.134E-01
DAV:   3    -0.159521545284E+04    0.48566E-03   -0.49081E-03 16824   0.103E-01    0.978E-02
DAV:   4    -0.159521507601E+04    0.37683E-03   -0.19993E-03 18352   0.804E-02    0.550E-02
DAV:   5    -0.159521498524E+04    0.90765E-04   -0.10311E-03 16632   0.500E-02    0.170E-02
DAV:   6    -0.159521499147E+04   -0.62202E-05   -0.16544E-04 14192   0.204E-02    0.116E-02
DAV:   7    -0.159521499148E+04   -0.16554E-07   -0.22907E-05  7288   0.818E-03
   6 F= -.15952150E+04 E0= -.15952005E+04  d E =-.340340E-02
       N       E                     dE             d eps       ncg     rms          rms(c)
DAV:   1    -0.159522408177E+04   -0.90903E-02   -0.67021E-01 11724   0.109E+00    0.191E-01
DAV:   2    -0.159522509654E+04   -0.10148E-02   -0.17750E-02 18048   0.230E-01    0.181E-01
DAV:   3    -0.159522277432E+04    0.23222E-02   -0.86079E-03 18480   0.159E-01    0.834E-02
DAV:   4    -0.159522250929E+04    0.26503E-03   -0.11469E-03 16216   0.507E-02    0.481E-02
DAV:   5    -0.159522241351E+04    0.95774E-04   -0.52172E-04 16040   0.383E-02    0.254E-02
DAV:   6    -0.159522237435E+04    0.39167E-04   -0.20343E-04 15856   0.257E-02    0.130E-02
DAV:   7    -0.159522236979E+04    0.45547E-05   -0.41939E-05  9912   0.109E-02
   7 F= -.15952224E+04 E0= -.15952080E+04  d E =-.737831E-02
       N       E                     dE             d eps       ncg     rms          rms(c)
DAV:   1    -0.159522478951E+04   -0.24152E-02   -0.30448E-01 11772   0.714E-01    0.866E-02
DAV:   2    -0.159522544661E+04   -0.65710E-03   -0.51736E-03 17280   0.126E-01    0.985E-02
DAV:   3    -0.159522477399E+04    0.67262E-03   -0.21785E-03 17576   0.818E-02    0.462E-02
DAV:   4    -0.159522474478E+04    0.29211E-04   -0.33506E-04 16216   0.273E-02    0.215E-02
DAV:   5    -0.159522473895E+04    0.58305E-05   -0.12934E-04 15368   0.204E-02    0.104E-02
DAV:   6    -0.159522473403E+04    0.49185E-05   -0.33382E-05  8944   0.110E-02
   8 F= -.15952247E+04 E0= -.15952104E+04  d E =-.236424E-02
       N       E                     dE             d eps       ncg     rms          rms(c)
DAV:   1    -0.159522573255E+04   -0.99360E-03   -0.78385E-02 11852   0.383E-01    0.802E-02
DAV:   2    -0.159522562684E+04    0.10571E-03   -0.19421E-03 17904   0.746E-02    0.610E-02
DAV:   3    -0.159522539915E+04    0.22768E-03   -0.10254E-03 18944   0.544E-02    0.346E-02
DAV:   4    -0.159522532314E+04    0.76015E-04   -0.19647E-04 16304   0.212E-02    0.180E-02
DAV:   5    -0.159522529223E+04    0.30903E-04   -0.83371E-05 13984   0.153E-02    0.852E-03
DAV:   6    -0.159522528435E+04    0.78826E-05   -0.21078E-05  7920   0.974E-03
   9 F= -.15952253E+04 E0= -.15952110E+04  d E =-.550321E-03
       N       E                     dE             d eps       ncg     rms          rms(c)
DAV:   1    -0.159522619735E+04   -0.90511E-03   -0.42818E-02 11812   0.282E-01    0.549E-02
DAV:   2    -0.159522616251E+04    0.34834E-04   -0.60296E-04 16688   0.370E-02    0.322E-02
DAV:   3    -0.159522615008E+04    0.12433E-04   -0.24997E-04 18396   0.268E-02    0.252E-02
DAV:   4    -0.159522613920E+04    0.10878E-04   -0.88383E-05 14328   0.154E-02    0.111E-02
DAV:   5    -0.159522614951E+04   -0.10312E-04   -0.32248E-05  8284   0.101E-02    0.432E-03
DAV:   6    -0.159522615056E+04   -0.10444E-05   -0.85164E-06  6576   0.665E-03
  10 F= -.15952262E+04 E0= -.15952119E+04  d E =-.866206E-03
       N       E                     dE             d eps       ncg     rms          rms(c)
DAV:   1    -0.159522679753E+04   -0.64801E-03   -0.67113E-02 11716   0.334E-01    0.378E-02
DAV:   2    -0.159522687393E+04   -0.76402E-04   -0.87077E-04 17944   0.478E-02    0.378E-02
DAV:   3    -0.159522679198E+04    0.81945E-04   -0.31287E-04 18484   0.308E-02    0.216E-02
DAV:   4    -0.159522677535E+04    0.16633E-04   -0.41834E-05  9704   0.106E-02    0.972E-03
DAV:   5    -0.159522677070E+04    0.46526E-05   -0.16588E-05  7716   0.903E-03
  11 F= -.15952268E+04 E0= -.15952125E+04  d E =-.620140E-03
       N       E                     dE             d eps       ncg     rms          rms(c)
DAV:   1    -0.159522730349E+04   -0.52814E-03   -0.86921E-02 11728   0.382E-01    0.403E-02
DAV:   2    -0.159522737626E+04   -0.72778E-04   -0.85363E-04 17160   0.424E-02    0.335E-02
DAV:   3    -0.159522734224E+04    0.34025E-04   -0.19488E-04 17136   0.246E-02    0.240E-02
DAV:   4    -0.159522734020E+04    0.20389E-05   -0.58021E-05 12056   0.114E-02    0.731E-03
DAV:   5    -0.159522734327E+04   -0.30700E-05   -0.13891E-05  7496   0.810E-03
  12 F= -.15952273E+04 E0= -.15952131E+04  d E =-.572572E-03
       N       E                     dE             d eps       ncg     rms          rms(c)
DAV:   1    -0.159522744807E+04   -0.10787E-03   -0.21664E-03 11872   0.751E-02    0.253E-02
DAV:   2    -0.159522739627E+04    0.51794E-04   -0.73035E-05 12288   0.133E-02    0.117E-02
DAV:   3    -0.159522738217E+04    0.14105E-04   -0.24734E-05  8080   0.981E-03    0.800E-03
DAV:   4    -0.159522737117E+04    0.10999E-04   -0.77534E-06  7312   0.742E-03    0.393E-03
DAV:   5    -0.159522736379E+04    0.73799E-05   -0.50717E-06  6272   0.406E-03
  13 F= -.15952274E+04 E0= -.15952131E+04  d E =-.205164E-04
       N       E                     dE             d eps       ncg     rms          rms(c)
DAV:   1    -0.159522768221E+04   -0.31104E-03   -0.34068E-02 11748   0.238E-01    0.235E-02
DAV:   2    -0.159522770790E+04   -0.25691E-04   -0.29869E-04 17048   0.240E-02    0.192E-02
DAV:   3    -0.159522769938E+04    0.85182E-05   -0.40358E-05 10032   0.125E-02    0.147E-02
DAV:   4    -0.159522769997E+04   -0.59003E-06   -0.25779E-05  6832   0.801E-03    0.312E-03
DAV:   5    -0.159522770066E+04   -0.68599E-06   -0.60796E-06  6360   0.570E-03
  14 F= -.15952277E+04 E0= -.15952135E+04  d E =-.336869E-03
       N       E                     dE             d eps       ncg     rms          rms(c)
DAV:   1    -0.159522804667E+04   -0.34670E-03   -0.54453E-02 11728   0.301E-01    0.293E-02
DAV:   2    -0.159522807360E+04   -0.26934E-04   -0.49262E-04 17112   0.306E-02    0.242E-02
DAV:   3    -0.159522805771E+04    0.15891E-04   -0.79016E-05 13886   0.161E-02    0.182E-02
DAV:   4    -0.159522804392E+04    0.13787E-04   -0.31491E-05  8024   0.877E-03    0.584E-03
DAV:   5    -0.159522804157E+04    0.23570E-05   -0.88881E-06  6728   0.662E-03
  15 F= -.15952280E+04 E0= -.15952138E+04  d E =-.340913E-03
       N       E                     dE             d eps       ncg     rms          rms(c)
DAV:   1    -0.159522806949E+04   -0.25561E-04   -0.13279E-03 11840   0.556E-02    0.162E-02
DAV:   2    -0.159522807238E+04   -0.28919E-05   -0.25349E-05  6432   0.865E-03    0.763E-03
DAV:   3    -0.159522807728E+04   -0.49015E-05   -0.11419E-05  6320   0.748E-03    0.561E-03
DAV:   4    -0.159522808065E+04   -0.33664E-05   -0.53282E-06  6304   0.541E-03    0.212E-03
DAV:   5    -0.159522808394E+04   -0.32986E-05   -0.26924E-06  6224   0.286E-03
  16 F= -.15952281E+04 E0= -.15952139E+04  d E =-.423768E-04
       N       E                     dE             d eps       ncg     rms          rms(c)
DAV:   1    -0.159522828541E+04   -0.20477E-03   -0.17835E-02 11734   0.173E-01    0.190E-02
DAV:   2    -0.159522828337E+04    0.20473E-05   -0.16571E-04 16648   0.169E-02    0.138E-02
DAV:   3    -0.159522827751E+04    0.58507E-05   -0.18286E-05  8112   0.864E-03    0.107E-02
DAV:   4    -0.159522826982E+04    0.76969E-05   -0.10968E-05  6352   0.623E-03    0.472E-03
DAV:   5    -0.159522826638E+04    0.34368E-05   -0.51336E-06  6222   0.465E-03
  17 F= -.15952283E+04 E0= -.15952140E+04  d E =-.182436E-03
       N       E                     dE             d eps       ncg     rms          rms(c)
DAV:   1    -0.159522843250E+04   -0.16269E-03   -0.19775E-02 11728   0.181E-01    0.170E-02
DAV:   2    -0.159522844576E+04   -0.13258E-04   -0.16641E-04 16664   0.165E-02    0.131E-02
DAV:   3    -0.159522844449E+04    0.12743E-05   -0.10619E-05  7382   0.663E-03    0.999E-03
DAV:   4    -0.159522844449E+04   -0.38499E-08   -0.11576E-05  6352   0.599E-03    0.206E-03
DAV:   5    -0.159522844445E+04    0.42823E-07   -0.25351E-06  6176   0.365E-03
  18 F= -.15952284E+04 E0= -.15952142E+04  d E =-.178069E-03
       N       E                     dE             d eps       ncg     rms          rms(c)
DAV:   1    -0.159522862682E+04   -0.18233E-03   -0.27397E-02 11728   0.214E-01    0.230E-02
DAV:   2    -0.159522862400E+04    0.28216E-05   -0.24989E-04 17112   0.205E-02    0.163E-02
DAV:   3    -0.159522861629E+04    0.77103E-05   -0.24117E-05  8582   0.970E-03    0.124E-02
DAV:   4    -0.159522860610E+04    0.10189E-04   -0.14119E-05  6936   0.777E-03    0.563E-03
DAV:   5    -0.159522860137E+04    0.47239E-05   -0.71610E-06  6224   0.536E-03
  19 F= -.15952286E+04 E0= -.15952144E+04  d E =-.156925E-03
       N       E                     dE             d eps       ncg     rms          rms(c)
DAV:   1    -0.159522860996E+04   -0.38654E-05   -0.48280E-04 11824   0.357E-02    0.120E-02
DAV:   2    -0.159522861447E+04   -0.45105E-05   -0.11598E-05  6152   0.602E-03    0.579E-03
DAV:   3    -0.159522861782E+04   -0.33466E-05   -0.53848E-06  6152   0.558E-03    0.444E-03
DAV:   4    -0.159522862115E+04   -0.33246E-05   -0.28031E-06  6128   0.391E-03    0.145E-03
DAV:   5    -0.159522862359E+04   -0.24484E-05   -0.13482E-06  6120   0.198E-03
  20 F= -.15952286E+04 E0= -.15952144E+04  d E =-.222194E-04
       N       E                     dE             d eps       ncg     rms          rms(c)
DAV:   1    -0.159522873298E+04   -0.11184E-03   -0.11560E-02 11728   0.138E-01    0.131E-02
DAV:   2    -0.159522873610E+04   -0.31156E-05   -0.90591E-05 14696   0.123E-02    0.996E-03
DAV:   3    -0.159522873399E+04    0.21101E-05   -0.85915E-06  6574   0.535E-03    0.676E-03
DAV:   4    -0.159522873129E+04    0.26943E-05   -0.56814E-06  6224   0.483E-03    0.187E-03
DAV:   5    -0.159522873099E+04    0.30270E-06   -0.19113E-06  6150   0.311E-03
  21 F= -.15952287E+04 E0= -.15952145E+04  d E =-.107397E-03
       N       E                     dE             d eps       ncg     rms          rms(c)
DAV:   1    -0.159522888603E+04   -0.15473E-03   -0.39266E-02 11716   0.255E-01    0.242E-02
DAV:   2    -0.159522891089E+04   -0.24867E-04   -0.32841E-04 17160   0.226E-02    0.182E-02
DAV:   3    -0.159522890843E+04    0.24591E-05   -0.20992E-05  8090   0.852E-03    0.104E-02
DAV:   4    -0.159522890908E+04   -0.64387E-06   -0.14245E-05  7528   0.869E-03    0.310E-03
DAV:   5    -0.159522890895E+04    0.12353E-06   -0.43685E-06  6316   0.515E-03
  22 F= -.15952289E+04 E0= -.15952147E+04  d E =-.177963E-03
       N       E                     dE             d eps       ncg     rms          rms(c)
DAV:   1    -0.159522887711E+04    0.31963E-04   -0.41760E-03 11728   0.854E-02    0.129E-02
DAV:   2    -0.159522886254E+04    0.14571E-04   -0.26457E-05  7264   0.850E-03    0.742E-03
DAV:   3    -0.159522885708E+04    0.54630E-05   -0.98799E-06  6168   0.589E-03    0.488E-03
DAV:   4    -0.159522885232E+04    0.47555E-05   -0.46999E-06  6104   0.473E-03    0.209E-03
DAV:   5    -0.159522885030E+04    0.20224E-05   -0.25213E-06  6032   0.286E-03
  23 F= -.15952289E+04 E0= -.15952146E+04  d E =0.586512E-04
       N       E                     dE             d eps       ncg     rms          rms(c)
DAV:   1    -0.159522893884E+04   -0.86518E-04   -0.12359E-02 11728   0.143E-01    0.132E-02
DAV:   2    -0.159522894518E+04   -0.63403E-05   -0.83002E-05 13616   0.123E-02    0.999E-03
DAV:   3    -0.159522894495E+04    0.23154E-06   -0.10109E-05  6308   0.572E-03    0.587E-03
DAV:   4    -0.159522894566E+04   -0.70669E-06   -0.59966E-06  6192   0.517E-03    0.172E-03
DAV:   5    -0.159522894557E+04    0.86573E-07   -0.18699E-06  6056   0.300E-03
  24 F= -.15952289E+04 E0= -.15952147E+04  d E =-.952689E-04
       N       E                     dE             d eps       ncg     rms          rms(c)
DAV:   1    -0.159522906447E+04   -0.11881E-03   -0.33534E-02 11712   0.236E-01    0.223E-02
DAV:   2    -0.159522907710E+04   -0.12631E-04   -0.28642E-04 17168   0.210E-02    0.169E-02
DAV:   3    -0.159522907035E+04    0.67482E-05   -0.17247E-05  7848   0.776E-03    0.107E-02
DAV:   4    -0.159522906469E+04    0.56613E-05   -0.13259E-05  7312   0.792E-03    0.351E-03
DAV:   5    -0.159522906361E+04    0.10806E-05   -0.45352E-06  6230   0.516E-03
  25 F= -.15952291E+04 E0= -.15952148E+04  d E =-.118039E-03
       N       E                     dE             d eps       ncg     rms          rms(c)
DAV:   1    -0.159522900252E+04    0.62175E-04   -0.88822E-03 11720   0.123E-01    0.152E-02
DAV:   2    -0.159522900927E+04   -0.67549E-05   -0.69170E-05 13232   0.115E-02    0.988E-03
DAV:   3    -0.159522901110E+04   -0.18253E-05   -0.11441E-05  6434   0.622E-03    0.703E-03
DAV:   4    -0.159522901327E+04   -0.21768E-05   -0.49795E-06  6056   0.499E-03    0.322E-03
DAV:   5    -0.159522901574E+04   -0.24679E-05   -0.28064E-06  6032   0.327E-03
  26 F= -.15952290E+04 E0= -.15952148E+04  d E =0.478699E-04
       N       E                     dE             d eps       ncg     rms          rms(c)
DAV:   1    -0.159522909223E+04   -0.78957E-04   -0.12137E-02 11720   0.142E-01    0.135E-02
DAV:   2    -0.159522909296E+04   -0.73171E-06   -0.84842E-05 13816   0.125E-02    0.101E-02
DAV:   3    -0.159522908989E+04    0.30720E-05   -0.99021E-06  6138   0.569E-03    0.647E-03
DAV:   4    -0.159522908655E+04    0.33434E-05   -0.59487E-06  6096   0.509E-03    0.189E-03
DAV:   5    -0.159522908617E+04    0.37733E-06   -0.20828E-06  6032   0.323E-03
  27 F= -.15952291E+04 E0= -.15952148E+04  d E =-.704285E-04
       N       E                     dE             d eps       ncg     rms          rms(c)
DAV:   1    -0.159522915313E+04   -0.66582E-04   -0.18184E-02 11712   0.173E-01    0.161E-02
DAV:   2    -0.159522916534E+04   -0.12209E-04   -0.15593E-04 16616   0.154E-02    0.124E-02
DAV:   3    -0.159522916425E+04    0.10859E-05   -0.93421E-06  7092   0.596E-03    0.783E-03
DAV:   4    -0.159522916425E+04    0.11141E-09   -0.78569E-06  6336   0.594E-03    0.197E-03
DAV:   5    -0.159522916410E+04    0.14953E-06   -0.20198E-06  6054   0.342E-03
  28 F= -.15952292E+04 E0= -.15952149E+04  d E =-.779327E-04
       N       E                     dE             d eps       ncg     rms          rms(c)
DAV:   1    -0.159522914486E+04    0.19389E-04   -0.30119E-03 11720   0.720E-02    0.985E-03
DAV:   2    -0.159522913567E+04    0.91917E-05   -0.17742E-05  6136   0.689E-03    0.591E-03
DAV:   3    -0.159522913186E+04    0.38146E-05   -0.64084E-06  6024   0.454E-03    0.381E-03
DAV:   4    -0.159522912855E+04    0.33053E-05   -0.31041E-06  6008   0.368E-03    0.164E-03
DAV:   5    -0.159522912722E+04    0.13283E-05   -0.16734E-06  6008   0.233E-03
  29 F= -.15952291E+04 E0= -.15952149E+04  d E =0.368796E-04
       N       E                     dE             d eps       ncg     rms          rms(c)
DAV:   1    -0.159522917053E+04   -0.41983E-04   -0.71643E-03 11720   0.109E-01    0.103E-02
DAV:   2    -0.159522917454E+04   -0.40050E-05   -0.39973E-05  9016   0.938E-03    0.754E-03
DAV:   3    -0.159522917551E+04   -0.97662E-06   -0.89347E-06  6074   0.507E-03    0.462E-03
DAV:   4    -0.159522917688E+04   -0.13663E-05   -0.47346E-06  6032   0.426E-03    0.108E-03
DAV:   5    -0.159522917702E+04   -0.13973E-06   -0.20166E-06  6032   0.265E-03
  30 F= -.15952292E+04 E0= -.15952149E+04  d E =-.497988E-04
       N       E                     dE             d eps       ncg     rms          rms(c)
DAV:   1    -0.159522921304E+04   -0.36157E-04   -0.70456E-03 11716   0.108E-01    0.103E-02
DAV:   2    -0.159522921460E+04   -0.15592E-05   -0.59014E-05 12152   0.984E-03    0.786E-03
DAV:   3    -0.159522921299E+04    0.16021E-05   -0.82467E-06  6240   0.499E-03    0.464E-03
DAV:   4    -0.159522921137E+04    0.16265E-05   -0.36621E-06  6080   0.397E-03    0.151E-03
DAV:   5    -0.159522921115E+04    0.21512E-06   -0.14969E-06  6032   0.264E-03
  31 F= -.15952292E+04 E0= -.15952149E+04  d E =-.341324E-04
       N       E                     dE             d eps       ncg     rms          rms(c)
DAV:   1    -0.159522919184E+04    0.19531E-04   -0.17159E-03 11720   0.541E-02    0.710E-03
DAV:   2    -0.159522919513E+04   -0.32976E-05   -0.95909E-06  5926   0.522E-03    0.430E-03
DAV:   3    -0.159522919688E+04   -0.17467E-05   -0.32548E-06  5910   0.334E-03    0.292E-03
DAV:   4    -0.159522919841E+04   -0.15243E-05   -0.15534E-06  5918   0.259E-03    0.133E-03
DAV:   5    -0.159522919945E+04   -0.10439E-05   -0.84814E-07  5918   0.164E-03
  32 F= -.15952292E+04 E0= -.15952149E+04  d E =0.117038E-04
       N       E                     dE             d eps       ncg     rms          rms(c)
DAV:   1    -0.159522922760E+04   -0.29196E-04   -0.40889E-03 11720   0.824E-02    0.760E-03
DAV:   2    -0.159522922717E+04    0.43446E-06   -0.19478E-05  6066   0.708E-03    0.551E-03
DAV:   3    -0.159522922644E+04    0.72380E-06   -0.61172E-06  5954   0.390E-03    0.327E-03
DAV:   4    -0.159522922556E+04    0.88472E-06   -0.34547E-06  5918   0.340E-03    0.840E-04
DAV:   5    -0.159522922566E+04   -0.10561E-06   -0.16552E-06  5918   0.227E-03
  33 F= -.15952292E+04 E0= -.15952150E+04  d E =-.262149E-04
       N       E                     dE             d eps       ncg     rms          rms(c)
DAV:   1    -0.159522926408E+04   -0.38519E-04   -0.17954E-02 11708   0.172E-01    0.160E-02
DAV:   2    -0.159522927556E+04   -0.11482E-04   -0.15646E-04 16616   0.155E-02    0.124E-02
DAV:   3    -0.159522927395E+04    0.16107E-05   -0.98828E-06  7154   0.595E-03    0.702E-03
DAV:   4    -0.159522927364E+04    0.30539E-06   -0.71961E-06  6464   0.597E-03    0.206E-03
DAV:   5    -0.159522927341E+04    0.23282E-06   -0.18794E-06  6078   0.335E-03
  34 F= -.15952293E+04 E0= -.15952150E+04  d E =-.477464E-04
       N       E                     dE             d eps       ncg     rms          rms(c)
DAV:   1    -0.159522924241E+04    0.31229E-04   -0.11812E-02 11708   0.140E-01    0.141E-02
DAV:   2    -0.159522924042E+04    0.19955E-05   -0.85407E-05 14104   0.123E-02    0.103E-02
DAV:   3    -0.159522923581E+04    0.46110E-05   -0.10062E-05  6150   0.573E-03    0.621E-03
DAV:   4    -0.159522923151E+04    0.42966E-05   -0.53911E-06  6008   0.525E-03    0.173E-03
DAV:   5    -0.159522923110E+04    0.41463E-06   -0.19434E-06  5918   0.309E-03
  35 F= -.15952292E+04 E0= -.15952150E+04  d E =0.423143E-04
       N       E                     dE             d eps       ncg     rms          rms(c)
DAV:   1    -0.159522926173E+04   -0.30221E-04   -0.83755E-03 11708   0.118E-01    0.111E-02
DAV:   2    -0.159522926534E+04   -0.36112E-05   -0.54054E-05 11768   0.102E-02    0.844E-03
DAV:   3    -0.159522926509E+04    0.24951E-06   -0.87547E-06  6036   0.528E-03    0.468E-03
DAV:   4    -0.159522926541E+04   -0.31695E-06   -0.46073E-06  6012   0.448E-03    0.158E-03
DAV:   5    -0.159522926527E+04    0.14032E-06   -0.14799E-06  5918   0.256E-03
  36 F= -.15952293E+04 E0= -.15952150E+04  d E =-.341735E-04
       N       E                     dE             d eps       ncg     rms          rms(c)
DAV:   1    -0.159522929389E+04   -0.28484E-04   -0.17580E-02 11704   0.171E-01    0.158E-02
DAV:   2    -0.159522930245E+04   -0.85520E-05   -0.15065E-04 16560   0.151E-02    0.121E-02
DAV:   3    -0.159522929937E+04    0.30727E-05   -0.94305E-06  6966   0.573E-03    0.702E-03
DAV:   4    -0.159522929740E+04    0.19742E-05   -0.68322E-06  6344   0.579E-03    0.221E-03
DAV:   5    -0.159522929714E+04    0.25922E-06   -0.19945E-06  6020   0.353E-03
  37 F= -.15952293E+04 E0= -.15952150E+04  d E =-.318700E-04
       N       E                     dE             d eps       ncg     rms          rms(c)
DAV:   1    -0.159522927673E+04    0.20669E-04   -0.50228E-03 11708   0.919E-02    0.107E-02
DAV:   2    -0.159522928080E+04   -0.40674E-05   -0.27419E-05  7528   0.845E-03    0.698E-03
DAV:   3    -0.159522928273E+04   -0.19354E-05   -0.90132E-06  5988   0.524E-03    0.481E-03
DAV:   4    -0.159522928472E+04   -0.19873E-05   -0.46381E-06  5912   0.419E-03    0.185E-03
DAV:   5    -0.159522928587E+04   -0.11502E-05   -0.24494E-06  5906   0.275E-03
  38 F= -.15952293E+04 E0= -.15952150E+04  d E =0.112697E-04
       N       E                     dE             d eps       ncg     rms          rms(c)
DAV:   1    -0.159522930770E+04   -0.22984E-04   -0.49991E-03 11708   0.913E-02    0.902E-03
DAV:   2    -0.159522930465E+04    0.30549E-05   -0.23703E-05  7168   0.787E-03    0.626E-03
DAV:   3    -0.159522930281E+04    0.18405E-05   -0.71100E-06  5986   0.433E-03    0.396E-03
DAV:   4    -0.159522930073E+04    0.20793E-05   -0.37080E-06  5906   0.361E-03    0.139E-03
DAV:   5    -0.159522930038E+04    0.34864E-06   -0.18812E-06  5906   0.244E-03
  39 F= -.15952293E+04 E0= -.15952150E+04  d E =-.145106E-04
       N       E                     dE             d eps       ncg     rms          rms(c)
DAV:   1    -0.159522930488E+04   -0.41524E-05   -0.94492E-04 11716   0.394E-02    0.383E-03
DAV:   2    -0.159522930567E+04   -0.78789E-06   -0.63625E-06  5894   0.392E-03    0.284E-03
DAV:   3    -0.159522930601E+04   -0.33843E-06   -0.25223E-06  5888   0.255E-03    0.174E-03
DAV:   4    -0.159522930641E+04   -0.40042E-06   -0.15215E-06  5894   0.214E-03    0.422E-04
DAV:   5    -0.159522930643E+04   -0.18045E-07   -0.79940E-07  5894   0.155E-03
  40 F= -.15952293E+04 E0= -.15952150E+04  d E =-.604579E-05
       N       E                     dE             d eps       ncg     rms          rms(c)
DAV:   1    -0.159522930516E+04    0.12507E-05   -0.42289E-04 11704   0.268E-02    0.316E-03
DAV:   2    -0.159522930311E+04    0.20495E-05   -0.19419E-06  5894   0.232E-03    0.202E-03
DAV:   3    -0.159522930223E+04    0.88024E-06   -0.58379E-07  5888   0.140E-03    0.137E-03
DAV:   4    -0.159522930120E+04    0.10246E-05   -0.28696E-07  5894   0.113E-03    0.501E-04
DAV:   5    -0.159522930088E+04    0.32502E-06   -0.13802E-07  5894   0.687E-04
  41 F= -.15952293E+04 E0= -.15952150E+04  d E =0.554813E-05
       N       E                     dE             d eps       ncg     rms          rms(c)
DAV:   1    -0.159522930559E+04   -0.43823E-05   -0.87532E-04 11716   0.381E-02    0.349E-03
DAV:   2    -0.159522930602E+04   -0.43732E-06   -0.42182E-06  5894   0.329E-03    0.255E-03
DAV:   3    -0.159522930620E+04   -0.17310E-06   -0.13853E-06  5890   0.183E-03    0.140E-03
DAV:   4    -0.159522930640E+04   -0.20434E-06   -0.78765E-07  5894   0.159E-03    0.414E-04
DAV:   5    -0.159522930640E+04    0.30436E-08   -0.37640E-07  5892   0.106E-03
  42 F= -.15952293E+04 E0= -.15952150E+04  d E =-.551905E-05
       N       E                     dE             d eps       ncg     rms          rms(c)
DAV:   1    -0.159522931442E+04   -0.80215E-05   -0.54231E-03 11708   0.947E-02    0.876E-03
DAV:   2    -0.159522931601E+04   -0.15840E-05   -0.32028E-05  8984   0.848E-03    0.650E-03
DAV:   3    -0.159522931583E+04    0.17290E-06   -0.97732E-06  6148   0.485E-03    0.287E-03
DAV:   4    -0.159522931596E+04   -0.12268E-06   -0.48349E-06  5942   0.410E-03    0.110E-03
DAV:   5    -0.159522931609E+04   -0.13095E-06   -0.24254E-06  5940   0.279E-03
  43 F= -.15952293E+04 E0= -.15952150E+04  d E =-.968927E-05
