       N       E                     dE             d eps       ncg     rms          rms(c)
DAV:   1     0.194179227367E+04    0.19418E+04   -0.27682E+05 11172   0.142E+03
DAV:   2    -0.118404170784E+04   -0.31258E+04   -0.30049E+04 12886   0.266E+02
DAV:   3    -0.157730259307E+04   -0.39326E+03   -0.35732E+03 17536   0.824E+01
DAV:   4    -0.160249020294E+04   -0.25188E+02   -0.22739E+02 15888   0.162E+01
DAV:   5    -0.160364944270E+04   -0.11592E+01   -0.11289E+01 16720   0.447E+00    0.379E+01
DAV:   6    -0.156988992112E+04    0.33760E+02   -0.11517E+02 17728   0.154E+01    0.230E+01
DAV:   7    -0.155869683085E+04    0.11193E+02   -0.98044E+01 17632   0.160E+01    0.183E+01
DAV:   8    -0.154820998532E+04    0.10487E+02   -0.69175E+01 16520   0.115E+01    0.115E+01
DAV:   9    -0.154140159238E+04    0.68084E+01   -0.29253E+01 16176   0.838E+00    0.364E+00
DAV:  10    -0.154110421063E+04    0.29738E+00   -0.56616E+00 16072   0.346E+00    0.165E+00
DAV:  11    -0.154108771251E+04    0.16498E-01   -0.89079E-01 15016   0.140E+00    0.115E+00
DAV:  12    -0.154107137729E+04    0.16335E-01   -0.31078E-01 15008   0.711E-01    0.676E-01
DAV:  13    -0.154106132381E+04    0.10053E-01   -0.71203E-02 15544   0.431E-01    0.471E-01
DAV:  14    -0.154105371940E+04    0.76044E-02   -0.29163E-02 17000   0.278E-01    0.287E-01
DAV:  15    -0.154105062540E+04    0.30940E-02   -0.13313E-02 15424   0.157E-01    0.110E-01
DAV:  16    -0.154105050398E+04    0.12142E-03   -0.35761E-03 15832   0.825E-02    0.569E-02
DAV:  17    -0.154105050668E+04   -0.26991E-05   -0.88858E-04 15752   0.466E-02    0.388E-02
DAV:  18    -0.154105047503E+04    0.31649E-04   -0.33375E-04 15272   0.288E-02    0.217E-02
DAV:  19    -0.154105046052E+04    0.14518E-04   -0.10663E-04 13088   0.158E-02    0.102E-02
DAV:  20    -0.154105045563E+04    0.48909E-05   -0.25785E-05  7024   0.843E-03
   1 F= -.15410505E+04 E0= -.15410478E+04  d E =-.154105E+04
       N       E                     dE             d eps       ncg     rms          rms(c)
DAV:   1    -0.154418339497E+04   -0.31329E+01   -0.26479E+03 11172   0.796E+01    0.274E+01
DAV:   2    -0.151805308315E+04    0.26130E+02   -0.16533E+02 18720   0.186E+01    0.190E+01
DAV:   3    -0.150998963709E+04    0.80634E+01   -0.10275E+02 18640   0.143E+01    0.153E+01
DAV:   4    -0.150130016022E+04    0.86895E+01   -0.49713E+01 20352   0.908E+00    0.105E+01
DAV:   5    -0.149719636975E+04    0.41038E+01   -0.31843E+01 18520   0.679E+00    0.478E+00
DAV:   6    -0.149656552979E+04    0.63084E+00   -0.79298E+00 18296   0.370E+00    0.314E+00
DAV:   7    -0.149633887445E+04    0.22666E+00   -0.15682E+00 17440   0.168E+00    0.217E+00
DAV:   8    -0.149626069425E+04    0.78180E-01   -0.48812E-01 18080   0.770E-01    0.114E+00
DAV:   9    -0.149624843554E+04    0.12259E-01   -0.28654E-01 17816   0.528E-01    0.535E-01
DAV:  10    -0.149624869279E+04   -0.25725E-03   -0.70602E-02 18104   0.368E-01    0.447E-01
DAV:  11    -0.149624097565E+04    0.77171E-02   -0.34299E-02 19504   0.237E-01    0.190E-01
DAV:  12    -0.149624111280E+04   -0.13714E-03   -0.89416E-03 17128   0.105E-01    0.108E-01
DAV:  13    -0.149624176069E+04   -0.64790E-03   -0.30117E-03 16864   0.671E-02    0.758E-02
DAV:  14    -0.149624203023E+04   -0.26954E-03   -0.12813E-03 17008   0.517E-02    0.747E-02
DAV:  15    -0.149624187649E+04    0.15374E-03   -0.70954E-04 16880   0.377E-02    0.393E-02
DAV:  16    -0.149624184654E+04    0.29956E-04   -0.41333E-04 18648   0.225E-02    0.140E-02
DAV:  17    -0.149624185322E+04   -0.66836E-05   -0.42464E-05  8456   0.881E-03
   2 F= -.14962419E+04 E0= -.14962466E+04  d E =0.448086E+02
       N       E                     dE             d eps       ncg     rms          rms(c)
DAV:   1    -0.157409348465E+04   -0.77852E+02   -0.13387E+03 11172   0.627E+01    0.193E+01
DAV:   2    -0.155972367322E+04    0.14370E+02   -0.49398E+01 17400   0.116E+01    0.106E+01
DAV:   3    -0.155685321131E+04    0.28705E+01   -0.33707E+01 18088   0.885E+00    0.869E+00
DAV:   4    -0.155362196797E+04    0.32312E+01   -0.15890E+01 17152   0.580E+00    0.550E+00
DAV:   5    -0.155216038531E+04    0.14616E+01   -0.84949E+00 15920   0.421E+00    0.197E+00
DAV:   6    -0.155204813165E+04    0.11225E+00   -0.18776E+00 15656   0.199E+00    0.103E+00
DAV:   7    -0.155204733939E+04    0.79226E-03   -0.27704E-01 14320   0.816E-01    0.796E-01
DAV:   8    -0.155204832575E+04   -0.98635E-03   -0.77794E-02 15608   0.360E-01    0.421E-01
DAV:   9    -0.155206016109E+04   -0.11835E-01   -0.53325E-02 16208   0.271E-01    0.252E-01
DAV:  10    -0.155206117310E+04   -0.10120E-02   -0.12911E-02 16112   0.194E-01    0.193E-01
DAV:  11    -0.155206022840E+04    0.94470E-03   -0.62248E-03 17224   0.116E-01    0.839E-02
DAV:  12    -0.155206049612E+04   -0.26772E-03   -0.22924E-03 16280   0.592E-02    0.471E-02
DAV:  13    -0.155206079800E+04   -0.30188E-03   -0.70589E-04 14816   0.362E-02    0.262E-02
DAV:  14    -0.155206081896E+04   -0.20960E-04   -0.16699E-04 14752   0.206E-02    0.172E-02
DAV:  15    -0.155206081425E+04    0.47136E-05   -0.47806E-05  9680   0.110E-02
   3 F= -.15520608E+04 E0= -.15520825E+04  d E =-.558190E+02
       N       E                     dE             d eps       ncg     rms          rms(c)
DAV:   1    -0.155248908444E+04   -0.42827E+00   -0.24257E+01 11172   0.707E+00    0.128E+00
DAV:   2    -0.155245126250E+04    0.37822E-01   -0.38168E-01 16160   0.803E-01    0.796E-01
DAV:   3    -0.155244036583E+04    0.10897E-01   -0.14274E-01 18176   0.583E-01    0.656E-01
DAV:   4    -0.155241881327E+04    0.21553E-01   -0.66669E-02 15944   0.392E-01    0.318E-01
DAV:   5    -0.155241516423E+04    0.36490E-02   -0.31941E-02 15208   0.273E-01    0.138E-01
DAV:   6    -0.155241466598E+04    0.49825E-03   -0.70059E-03 15320   0.139E-01    0.883E-02
DAV:   7    -0.155241453840E+04    0.12758E-03   -0.18062E-03 15280   0.654E-02    0.592E-02
DAV:   8    -0.155241451234E+04    0.26055E-04   -0.57261E-04 15448   0.333E-02    0.328E-02
DAV:   9    -0.155241454456E+04   -0.32211E-04   -0.24178E-04 15792   0.222E-02    0.238E-02
DAV:  10    -0.155241454767E+04   -0.31131E-05   -0.10242E-04 13992   0.170E-02    0.134E-02
DAV:  11    -0.155241455086E+04   -0.31931E-05   -0.28073E-05  7320   0.911E-03
   4 F= -.15524146E+04 E0= -.15524337E+04  d E =-.353737E+00
       N       E                     dE             d eps       ncg     rms          rms(c)
DAV:   1    -0.155247220053E+04   -0.57653E-01   -0.41494E+00 11172   0.275E+00    0.431E-01
DAV:   2    -0.155248408921E+04   -0.11889E-01   -0.11475E-01 18128   0.555E-01    0.503E-01
DAV:   3    -0.155246799438E+04    0.16095E-01   -0.54945E-02 17944   0.377E-01    0.213E-01
DAV:   4    -0.155246654648E+04    0.14479E-02   -0.86611E-03 15936   0.127E-01    0.144E-01
DAV:   5    -0.155246587654E+04    0.66993E-03   -0.40261E-03 15880   0.987E-02    0.853E-02
DAV:   6    -0.155246562772E+04    0.24882E-03   -0.18731E-03 15856   0.714E-02    0.523E-02
DAV:   7    -0.155246549814E+04    0.12959E-03   -0.65767E-04 15296   0.395E-02    0.257E-02
DAV:   8    -0.155246550055E+04   -0.24131E-05   -0.14426E-04 14336   0.167E-02    0.161E-02
DAV:   9    -0.155246550141E+04   -0.85924E-06   -0.33424E-05  8280   0.104E-02
   5 F= -.15524655E+04 E0= -.15524851E+04  d E =-.509505E-01
       N       E                     dE             d eps       ncg     rms          rms(c)
DAV:   1    -0.155248769017E+04   -0.22190E-01   -0.24498E+00 11172   0.209E+00    0.238E-01
DAV:   2    -0.155249511737E+04   -0.74272E-02   -0.48057E-02 17624   0.344E-01    0.334E-01
DAV:   3    -0.155248814388E+04    0.69735E-02   -0.20447E-02 17640   0.231E-01    0.130E-01
DAV:   4    -0.155248791852E+04    0.22536E-03   -0.29063E-03 16328   0.729E-02    0.927E-02
DAV:   5    -0.155248774073E+04    0.17779E-03   -0.15247E-03 15568   0.608E-02    0.485E-02
DAV:   6    -0.155248768822E+04    0.52517E-04   -0.67052E-04 16008   0.424E-02    0.276E-02
DAV:   7    -0.155248765819E+04    0.30028E-04   -0.20910E-04 15064   0.211E-02    0.127E-02
DAV:   8    -0.155248765175E+04    0.64332E-05   -0.33108E-05  7984   0.979E-03
   6 F= -.15524877E+04 E0= -.15525070E+04  d E =-.221503E-01
       N       E                     dE             d eps       ncg     rms          rms(c)
DAV:   1    -0.155249709904E+04   -0.94409E-02   -0.61395E-01 11263   0.109E+00    0.208E-01
DAV:   2    -0.155249861287E+04   -0.15138E-02   -0.19655E-02 18248   0.240E-01    0.226E-01
DAV:   3    -0.155249541441E+04    0.31985E-02   -0.11004E-02 17984   0.168E-01    0.992E-02
DAV:   4    -0.155249502657E+04    0.38784E-03   -0.19612E-03 15728   0.600E-02    0.646E-02
DAV:   5    -0.155249483517E+04    0.19140E-03   -0.92960E-04 16032   0.490E-02    0.377E-02
DAV:   6    -0.155249475500E+04    0.80172E-04   -0.39975E-04 16048   0.330E-02    0.213E-02
DAV:   7    -0.155249473110E+04    0.23891E-04   -0.12063E-04 13896   0.168E-02    0.113E-02
DAV:   8    -0.155249473333E+04   -0.22256E-05   -0.22435E-05  6768   0.796E-03
   7 F= -.15524947E+04 E0= -.15525143E+04  d E =-.708158E-02
       N       E                     dE             d eps       ncg     rms          rms(c)
DAV:   1    -0.155250122065E+04   -0.64895E-02   -0.41560E-01 11235   0.879E-01    0.123E-01
DAV:   2    -0.155250204257E+04   -0.82192E-03   -0.71601E-03 17184   0.130E-01    0.135E-01
DAV:   3    -0.155250104620E+04    0.99637E-03   -0.32402E-03 17608   0.920E-02    0.644E-02
DAV:   4    -0.155250097631E+04    0.69890E-04   -0.66852E-04 14808   0.364E-02    0.354E-02
DAV:   5    -0.155250097073E+04    0.55822E-05   -0.32421E-04 16304   0.297E-02    0.210E-02
DAV:   6    -0.155250096080E+04    0.99294E-05   -0.12522E-04 14952   0.186E-02    0.101E-02
DAV:   7    -0.155250095803E+04    0.27747E-05   -0.25233E-05  7072   0.893E-03
   8 F= -.15525010E+04 E0= -.15525203E+04  d E =-.622470E-02
       N       E                     dE             d eps       ncg     rms          rms(c)
DAV:   1    -0.155250481319E+04   -0.38524E-02   -0.34464E-01 11214   0.781E-01    0.103E-01
DAV:   2    -0.155250625200E+04   -0.14388E-02   -0.86530E-03 17984   0.158E-01    0.154E-01
DAV:   3    -0.155250463955E+04    0.16124E-02   -0.44945E-03 17672   0.108E-01    0.521E-02
DAV:   4    -0.155250457425E+04    0.65308E-04   -0.52527E-04 16168   0.304E-02    0.376E-02
DAV:   5    -0.155250452872E+04    0.45523E-04   -0.23810E-04 16344   0.246E-02    0.233E-02
DAV:   6    -0.155250450160E+04    0.27122E-04   -0.12806E-04 14920   0.185E-02    0.125E-02
DAV:   7    -0.155250449308E+04    0.85218E-05   -0.34355E-05  7992   0.990E-03
   9 F= -.15525045E+04 E0= -.15525239E+04  d E =-.353505E-02
       N       E                     dE             d eps       ncg     rms          rms(c)
DAV:   1    -0.155250630199E+04   -0.18004E-02   -0.17859E-01 11284   0.567E-01    0.692E-02
DAV:   2    -0.155250678171E+04   -0.47972E-03   -0.30017E-03 17240   0.863E-02    0.891E-02
DAV:   3    -0.155250631441E+04    0.46730E-03   -0.13689E-03 17400   0.600E-02    0.374E-02
DAV:   4    -0.155250630965E+04    0.47564E-05   -0.23007E-04 15016   0.211E-02    0.210E-02
DAV:   5    -0.155250631226E+04   -0.26092E-05   -0.99307E-05 14224   0.170E-02
  10 F= -.15525063E+04 E0= -.15525256E+04  d E =-.181918E-02
       N       E                     dE             d eps       ncg     rms          rms(c)
DAV:   1    -0.155250743597E+04   -0.11263E-02   -0.51133E-02 11326   0.313E-01    0.570E-02
DAV:   2    -0.155250750058E+04   -0.64619E-04   -0.13242E-03 18096   0.615E-02    0.597E-02
DAV:   3    -0.155250728078E+04    0.21981E-03   -0.73452E-04 17936   0.435E-02    0.277E-02
DAV:   4    -0.155250723824E+04    0.42534E-04   -0.13996E-04 15352   0.159E-02    0.175E-02
DAV:   5    -0.155250721227E+04    0.25973E-04   -0.63133E-05 11696   0.136E-02    0.100E-02
DAV:   6    -0.155250720091E+04    0.11357E-04   -0.20918E-05  7096   0.957E-03    0.463E-03
DAV:   7    -0.155250719963E+04    0.12856E-05   -0.77409E-06  6216   0.512E-03
  11 F= -.15525072E+04 E0= -.15525266E+04  d E =-.887366E-03
       N       E                     dE             d eps       ncg     rms          rms(c)
DAV:   1    -0.155250811110E+04   -0.91018E-03   -0.83448E-02 11284   0.383E-01    0.409E-02
DAV:   2    -0.155250836586E+04   -0.25476E-03   -0.13799E-03 17664   0.590E-02    0.607E-02
DAV:   3    -0.155250813806E+04    0.22780E-03   -0.62669E-04 17712   0.404E-02    0.234E-02
DAV:   4    -0.155250813878E+04   -0.72477E-06   -0.78916E-05 12608   0.129E-02    0.138E-02
DAV:   5    -0.155250813999E+04   -0.12030E-05   -0.30734E-05  8288   0.111E-02
  12 F= -.15525081E+04 E0= -.15525275E+04  d E =-.940359E-03
       N       E                     dE             d eps       ncg     rms          rms(c)
DAV:   1    -0.155250878129E+04   -0.64250E-03   -0.59058E-02 11284   0.323E-01    0.389E-02
DAV:   2    -0.155250891678E+04   -0.13549E-03   -0.10823E-03 18048   0.527E-02    0.513E-02
DAV:   3    -0.155250875021E+04    0.16657E-03   -0.49544E-04 17944   0.359E-02    0.210E-02
DAV:   4    -0.155250873304E+04    0.17166E-04   -0.63604E-05 11728   0.111E-02    0.139E-02
DAV:   5    -0.155250872107E+04    0.11973E-04   -0.25032E-05  7448   0.100E-02    0.797E-03
DAV:   6    -0.155250871439E+04    0.66855E-05   -0.10373E-05  6544   0.737E-03
  13 F= -.15525087E+04 E0= -.15525281E+04  d E =-.574398E-03
       N       E                     dE             d eps       ncg     rms          rms(c)
DAV:   1    -0.155250901520E+04   -0.29413E-03   -0.18171E-02 11326   0.183E-01    0.247E-02
DAV:   2    -0.155250904072E+04   -0.25524E-04   -0.21950E-04 16664   0.208E-02    0.206E-02
DAV:   3    -0.155250902723E+04    0.13494E-04   -0.63497E-05 11272   0.139E-02    0.131E-02
DAV:   4    -0.155250903342E+04   -0.61888E-05   -0.21520E-05  6504   0.803E-03    0.608E-03
DAV:   5    -0.155250903951E+04   -0.60993E-05   -0.88149E-06  6216   0.630E-03
  14 F= -.15525090E+04 E0= -.15525284E+04  d E =-.325130E-03
       N       E                     dE             d eps       ncg     rms          rms(c)
DAV:   1    -0.155250939329E+04   -0.35987E-03   -0.26309E-02 11298   0.215E-01    0.247E-02
DAV:   2    -0.155250943827E+04   -0.44983E-04   -0.41092E-04 17904   0.321E-02    0.312E-02
DAV:   3    -0.155250937889E+04    0.59382E-04   -0.17560E-04 16544   0.217E-02    0.139E-02
DAV:   4    -0.155250936958E+04    0.93106E-05   -0.21082E-05  7000   0.757E-03    0.873E-03
DAV:   5    -0.155250936298E+04    0.65933E-05   -0.11881E-05  6376   0.686E-03
  15 F= -.15525094E+04 E0= -.15525287E+04  d E =-.323469E-03
       N       E                     dE             d eps       ncg     rms          rms(c)
DAV:   1    -0.155250965819E+04   -0.28862E-03   -0.31602E-02 11270   0.235E-01    0.221E-02
DAV:   2    -0.155250970477E+04   -0.46582E-04   -0.34944E-04 17032   0.263E-02    0.247E-02
DAV:   3    -0.155250967707E+04    0.27706E-04   -0.91007E-05 14153   0.163E-02    0.140E-02
DAV:   4    -0.155250967896E+04   -0.18960E-05   -0.22993E-05  6696   0.781E-03    0.592E-03
DAV:   5    -0.155250968101E+04   -0.20466E-05   -0.88687E-06  6344   0.656E-03
  16 F= -.15525097E+04 E0= -.15525290E+04  d E =-.318028E-03
       N       E                     dE             d eps       ncg     rms          rms(c)
DAV:   1    -0.155250986467E+04   -0.18570E-03   -0.12157E-02 11326   0.148E-01    0.191E-02
DAV:   2    -0.155250986410E+04    0.56523E-06   -0.17828E-04 16888   0.203E-02    0.186E-02
DAV:   3    -0.155250984377E+04    0.20334E-04   -0.62815E-05 11184   0.142E-02    0.101E-02
DAV:   4    -0.155250983604E+04    0.77338E-05   -0.15941E-05  6264   0.676E-03    0.622E-03
DAV:   5    -0.155250982946E+04    0.65765E-05   -0.84045E-06  6104   0.563E-03
  17 F= -.15525098E+04 E0= -.15525292E+04  d E =-.148448E-03
       N       E                     dE             d eps       ncg     rms          rms(c)
DAV:   1    -0.155250996729E+04   -0.13125E-03   -0.87592E-03 11326   0.125E-01    0.139E-02
DAV:   2    -0.155250998035E+04   -0.13057E-04   -0.82616E-05 13624   0.126E-02    0.115E-02
DAV:   3    -0.155250997761E+04    0.27329E-05   -0.16783E-05  7032   0.781E-03    0.808E-03
DAV:   4    -0.155250998281E+04   -0.51921E-05   -0.98475E-06  6032   0.501E-03    0.365E-03
DAV:   5    -0.155250998549E+04   -0.26865E-05   -0.42099E-06  5952   0.408E-03
  18 F= -.15525100E+04 E0= -.15525293E+04  d E =-.156032E-03
       N       E                     dE             d eps       ncg     rms          rms(c)
DAV:   1    -0.155251015871E+04   -0.17591E-03   -0.16345E-02 11270   0.169E-01    0.158E-02
DAV:   2    -0.155251017099E+04   -0.12274E-04   -0.16942E-04 16656   0.182E-02    0.161E-02
DAV:   3    -0.155251015873E+04    0.12258E-04   -0.30819E-05  8393   0.111E-02    0.100E-02
DAV:   4    -0.155251015437E+04    0.43532E-05   -0.15557E-05  6096   0.600E-03    0.497E-03
DAV:   5    -0.155251015237E+04    0.20034E-05   -0.70582E-06  6040   0.545E-03
  19 F= -.15525102E+04 E0= -.15525295E+04  d E =-.166879E-03
       N       E                     dE             d eps       ncg     rms          rms(c)
DAV:   1    -0.155251027786E+04   -0.12349E-03   -0.12451E-02 11284   0.148E-01    0.139E-02
DAV:   2    -0.155251029349E+04   -0.15629E-04   -0.11456E-04 15136   0.143E-02    0.124E-02
DAV:   3    -0.155251028979E+04    0.37042E-05   -0.16640E-05  7096   0.812E-03    0.865E-03
DAV:   4    -0.155251029399E+04   -0.42056E-05   -0.10501E-05  5936   0.511E-03    0.347E-03
DAV:   5    -0.155251029623E+04   -0.22338E-05   -0.42715E-06  5904   0.426E-03
  20 F= -.15525103E+04 E0= -.15525296E+04  d E =-.143854E-03
       N       E                     dE             d eps       ncg     rms          rms(c)
DAV:   1    -0.155251037310E+04   -0.79112E-04   -0.32178E-03 11326   0.764E-02    0.103E-02
DAV:   2    -0.155251036511E+04    0.79931E-05   -0.26069E-05  7592   0.988E-03    0.788E-03
DAV:   3    -0.155251036152E+04    0.35881E-05   -0.11687E-05  6752   0.790E-03    0.513E-03
DAV:   4    -0.155251035695E+04    0.45718E-05   -0.53778E-06  5880   0.409E-03    0.277E-03
DAV:   5    -0.155251035441E+04    0.25407E-05   -0.31646E-06  5880   0.322E-03
  21 F= -.15525104E+04 E0= -.15525297E+04  d E =-.581845E-04
       N       E                     dE             d eps       ncg     rms          rms(c)
DAV:   1    -0.155251044973E+04   -0.92781E-04   -0.85652E-03 11284   0.122E-01    0.113E-02
DAV:   2    -0.155251045851E+04   -0.87757E-05   -0.81551E-05 13608   0.109E-02    0.908E-03
DAV:   3    -0.155251045819E+04    0.31279E-06   -0.78781E-06  6184   0.537E-03    0.720E-03
DAV:   4    -0.155251046026E+04   -0.20633E-05   -0.58078E-06  5880   0.410E-03    0.240E-03
DAV:   5    -0.155251046112E+04   -0.86449E-06   -0.21549E-06  5880   0.308E-03
  22 F= -.15525105E+04 E0= -.15525298E+04  d E =-.106713E-03
       N       E                     dE             d eps       ncg     rms          rms(c)
DAV:   1    -0.155251054750E+04   -0.87239E-04   -0.71123E-03 11284   0.111E-01    0.102E-02
DAV:   2    -0.155251054722E+04    0.27792E-06   -0.59514E-05 11264   0.104E-02    0.826E-03
DAV:   3    -0.155251054545E+04    0.17667E-05   -0.10928E-05  6272   0.612E-03    0.627E-03
DAV:   4    -0.155251054218E+04    0.32753E-05   -0.49859E-06  5880   0.359E-03    0.289E-03
DAV:   5    -0.155251054052E+04    0.16597E-05   -0.25603E-06  5880   0.301E-03
  23 F= -.15525105E+04 E0= -.15525299E+04  d E =-.793947E-04
       N       E                     dE             d eps       ncg     rms          rms(c)
DAV:   1    -0.155251059788E+04   -0.55700E-04   -0.43609E-03 11284   0.875E-02    0.845E-03
DAV:   2    -0.155251060313E+04   -0.52546E-05   -0.25995E-05  7560   0.773E-03    0.605E-03
DAV:   3    -0.155251060482E+04   -0.16835E-05   -0.96788E-06  6011   0.492E-03    0.457E-03
DAV:   4    -0.155251060783E+04   -0.30131E-05   -0.58162E-06  5880   0.399E-03    0.188E-03
DAV:   5    -0.155251060917E+04   -0.13373E-05   -0.31907E-06  5880   0.295E-03
  24 F= -.15525106E+04 E0= -.15525299E+04  d E =-.686485E-04
       N       E                     dE             d eps       ncg     rms          rms(c)
DAV:   1    -0.155251066920E+04   -0.61375E-04   -0.38620E-03 11284   0.822E-02    0.880E-03
DAV:   2    -0.155251066476E+04    0.44420E-05   -0.29138E-05  8224   0.829E-03    0.630E-03
DAV:   3    -0.155251066363E+04    0.11344E-05   -0.10316E-05  6112   0.593E-03    0.490E-03
DAV:   4    -0.155251066046E+04    0.31646E-05   -0.55092E-06  5880   0.393E-03    0.250E-03
DAV:   5    -0.155251065881E+04    0.16477E-05   -0.32423E-06  5880   0.308E-03
  25 F= -.15525107E+04 E0= -.15525300E+04  d E =-.496491E-04
       N       E                     dE             d eps       ncg     rms          rms(c)
DAV:   1    -0.155251070344E+04   -0.42979E-04   -0.31704E-03 11284   0.742E-02    0.708E-03
DAV:   2    -0.155251070727E+04   -0.38298E-05   -0.20740E-05  6984   0.684E-03    0.525E-03
DAV:   3    -0.155251070843E+04   -0.11563E-05   -0.79629E-06  5899   0.445E-03    0.399E-03
DAV:   4    -0.155251071067E+04   -0.22377E-05   -0.50032E-06  5838   0.358E-03    0.166E-03
DAV:   5    -0.155251071163E+04   -0.96224E-06   -0.27566E-06  5838   0.282E-03
  26 F= -.15525107E+04 E0= -.15525300E+04  d E =-.528131E-04
       N       E                     dE             d eps       ncg     rms          rms(c)
DAV:   1    -0.155251076811E+04   -0.57440E-04   -0.49280E-03 11284   0.924E-02    0.844E-03
DAV:   2    -0.155251076770E+04    0.40432E-06   -0.42704E-05 10192   0.857E-03    0.655E-03
DAV:   3    -0.155251076703E+04    0.66665E-06   -0.83966E-06  6000   0.511E-03    0.515E-03
DAV:   4    -0.155251076460E+04    0.24318E-05   -0.43979E-06  5838   0.348E-03    0.218E-03
DAV:   5    -0.155251076365E+04    0.95098E-06   -0.23374E-06  5838   0.269E-03
  27 F= -.15525108E+04 E0= -.15525301E+04  d E =-.520240E-04
       N       E                     dE             d eps       ncg     rms          rms(c)
DAV:   1    -0.155251078925E+04   -0.24647E-04   -0.13777E-03 11284   0.491E-02    0.493E-03
DAV:   2    -0.155251079251E+04   -0.32557E-05   -0.94759E-06  5838   0.467E-03    0.352E-03
DAV:   3    -0.155251079344E+04   -0.93037E-06   -0.36843E-06  5817   0.312E-03    0.269E-03
DAV:   4    -0.155251079527E+04   -0.18327E-05   -0.22241E-06  5838   0.239E-03    0.133E-03
DAV:   5    -0.155251079628E+04   -0.10117E-05   -0.12710E-06  5838   0.187E-03
  28 F= -.15525108E+04 E0= -.15525301E+04  d E =-.326281E-04
       N       E                     dE             d eps       ncg     rms          rms(c)
DAV:   1    -0.155251083920E+04   -0.43932E-04   -0.34061E-03 11284   0.768E-02    0.707E-03
DAV:   2    -0.155251083765E+04    0.15499E-05   -0.20553E-05  7512   0.696E-03    0.525E-03
DAV:   3    -0.155251083732E+04    0.32783E-06   -0.76979E-06  5968   0.453E-03    0.410E-03
DAV:   4    -0.155251083539E+04    0.19352E-05   -0.45899E-06  5838   0.343E-03    0.157E-03
DAV:   5    -0.155251083495E+04    0.43857E-06   -0.25552E-06  5838   0.263E-03
  29 F= -.15525108E+04 E0= -.15525302E+04  d E =-.386692E-04
       N       E                     dE             d eps       ncg     rms          rms(c)
DAV:   1    -0.155251086965E+04   -0.34265E-04   -0.34224E-03 11284   0.771E-02    0.719E-03
DAV:   2    -0.155251087371E+04   -0.40544E-05   -0.22232E-05  7440   0.696E-03    0.520E-03
DAV:   3    -0.155251087539E+04   -0.16874E-05   -0.84181E-06  5880   0.437E-03    0.364E-03
DAV:   4    -0.155251087744E+04   -0.20439E-05   -0.49185E-06  5838   0.359E-03    0.174E-03
DAV:   5    -0.155251087836E+04   -0.91836E-06   -0.28145E-06  5838   0.276E-03
  30 F= -.15525109E+04 E0= -.15525302E+04  d E =-.434079E-04
       N       E                     dE             d eps       ncg     rms          rms(c)
DAV:   1    -0.155251089933E+04   -0.21888E-04   -0.73511E-04 11298   0.362E-02    0.486E-03
DAV:   2    -0.155251089556E+04    0.37636E-05   -0.71216E-06  5817   0.433E-03    0.316E-03
DAV:   3    -0.155251089472E+04    0.84013E-06   -0.31953E-06  5810   0.354E-03    0.247E-03
DAV:   4    -0.155251089291E+04    0.18118E-05   -0.17163E-06  5817   0.227E-03    0.131E-03
DAV:   5    -0.155251089178E+04    0.11313E-05   -0.10587E-06  5817   0.179E-03
  31 F= -.15525109E+04 E0= -.15525302E+04  d E =-.134230E-04
       N       E                     dE             d eps       ncg     rms          rms(c)
DAV:   1    -0.155251091946E+04   -0.26546E-04   -0.23477E-03 11284   0.637E-02    0.564E-03
DAV:   2    -0.155251092097E+04   -0.15154E-05   -0.13811E-05  7000   0.559E-03    0.427E-03
DAV:   3    -0.155251092152E+04   -0.54525E-06   -0.52866E-06  5904   0.345E-03    0.319E-03
DAV:   4    -0.155251092231E+04   -0.79678E-06   -0.34721E-06  5838   0.294E-03    0.996E-04
DAV:   5    -0.155251092253E+04   -0.21568E-06   -0.17684E-06  5838   0.219E-03
  32 F= -.15525109E+04 E0= -.15525303E+04  d E =-.307503E-04
       N       E                     dE             d eps       ncg     rms          rms(c)
DAV:   1    -0.155251098548E+04   -0.63165E-04   -0.15003E-02 11242   0.161E-01    0.140E-02
DAV:   2    -0.155251099042E+04   -0.49446E-05   -0.13965E-04 15560   0.138E-02    0.108E-02
DAV:   3    -0.155251098768E+04    0.27402E-05   -0.81181E-06  6209   0.558E-03    0.793E-03
DAV:   4    -0.155251098405E+04    0.36366E-05   -0.60557E-06  5976   0.514E-03    0.354E-03
DAV:   5    -0.155251098241E+04    0.16344E-05   -0.29462E-06  5880   0.363E-03
  33 F= -.15525110E+04 E0= -.15525303E+04  d E =-.598822E-04
       N       E                     dE             d eps       ncg     rms          rms(c)
DAV:   1    -0.155251094962E+04    0.34430E-04   -0.39211E-03 11256   0.830E-02    0.884E-03
DAV:   2    -0.155251095367E+04   -0.40507E-05   -0.20216E-05  6697   0.716E-03    0.604E-03
DAV:   3    -0.155251095510E+04   -0.14314E-05   -0.70087E-06  5803   0.463E-03    0.476E-03
DAV:   4    -0.155251095730E+04   -0.21987E-05   -0.41183E-06  5817   0.351E-03    0.178E-03
DAV:   5    -0.155251095862E+04   -0.13175E-05   -0.21684E-06  5817   0.231E-03
  34 F= -.15525110E+04 E0= -.15525303E+04  d E =0.237973E-04
       N       E                     dE             d eps       ncg     rms          rms(c)
DAV:   1    -0.155251099625E+04   -0.38954E-04   -0.53909E-03 11256   0.968E-02    0.806E-03
DAV:   2    -0.155251099693E+04   -0.67456E-06   -0.24181E-05  6816   0.764E-03    0.600E-03
DAV:   3    -0.155251099698E+04   -0.51595E-07   -0.78705E-06  5873   0.417E-03    0.415E-03
DAV:   4    -0.155251099654E+04    0.44111E-06   -0.48318E-06  5838   0.368E-03    0.115E-03
DAV:   5    -0.155251099666E+04   -0.12250E-06   -0.22355E-06  5838   0.237E-03
  35 F= -.15525110E+04 E0= -.15525303E+04  d E =-.380441E-04
       N       E                     dE             d eps       ncg     rms          rms(c)
DAV:   1    -0.155251107102E+04   -0.74483E-04   -0.45555E-02 11186   0.281E-01    0.235E-02
DAV:   2    -0.155251109501E+04   -0.23986E-04   -0.39871E-04 16592   0.233E-02    0.184E-02
DAV:   3    -0.155251108882E+04    0.61815E-05   -0.21341E-05  7444   0.819E-03    0.113E-02
DAV:   4    -0.155251108452E+04    0.43032E-05   -0.15455E-05  7088   0.846E-03    0.461E-03
DAV:   5    -0.155251108327E+04    0.12541E-05   -0.56260E-06  6017   0.534E-03
  36 F= -.15525111E+04 E0= -.15525304E+04  d E =-.866080E-04
       N       E                     dE             d eps       ncg     rms          rms(c)
DAV:   1    -0.155251112036E+04   -0.35834E-04   -0.50750E-02 11186   0.296E-01    0.243E-02
DAV:   2    -0.155251114868E+04   -0.28321E-04   -0.43932E-04 16640   0.246E-02    0.191E-02
DAV:   3    -0.155251114354E+04    0.51417E-05   -0.22062E-05  7736   0.875E-03    0.131E-02
DAV:   4    -0.155251113862E+04    0.49145E-05   -0.18363E-05  7096   0.900E-03    0.504E-03
DAV:   5    -0.155251113748E+04    0.11439E-05   -0.70431E-06  6096   0.605E-03
  37 F= -.15525111E+04 E0= -.15525305E+04  d E =-.542094E-04
       N       E                     dE             d eps       ncg     rms          rms(c)
DAV:   1    -0.155251114320E+04   -0.45840E-05   -0.21002E-02 11242   0.191E-01    0.153E-02
DAV:   2    -0.155251115655E+04   -0.13347E-04   -0.18866E-04 16088   0.161E-02    0.122E-02
DAV:   3    -0.155251115502E+04    0.15356E-05   -0.93024E-06  6400   0.571E-03    0.919E-03
DAV:   4    -0.155251115319E+04    0.18310E-05   -0.80573E-06  6112   0.556E-03    0.372E-03
DAV:   5    -0.155251115281E+04    0.37936E-06   -0.35885E-06  5904   0.417E-03
  38 F= -.15525112E+04 E0= -.15525305E+04  d E =-.153291E-04
       N       E                     dE             d eps       ncg     rms          rms(c)
DAV:   1    -0.155251115339E+04   -0.20220E-06   -0.16780E-03 11270   0.539E-02    0.408E-03
DAV:   2    -0.155251115406E+04   -0.67126E-06   -0.10579E-05  6016   0.514E-03    0.350E-03
DAV:   3    -0.155251115404E+04    0.17234E-07   -0.38251E-06  5880   0.331E-03    0.254E-03
DAV:   4    -0.155251115395E+04    0.91281E-07   -0.21731E-06  5859   0.222E-03    0.132E-03
DAV:   5    -0.155251115397E+04   -0.23745E-07   -0.12675E-06  5859   0.194E-03
  39 F= -.15525112E+04 E0= -.15525305E+04  d E =-.116805E-05
