       N       E                     dE             d eps       ncg     rms          rms(c)
DAV:   1     0.194222052610E+04    0.19422E+04   -0.27682E+05 11172   0.142E+03
DAV:   2    -0.118814705282E+04   -0.31304E+04   -0.30104E+04 12934   0.266E+02
DAV:   3    -0.157766842421E+04   -0.38952E+03   -0.35377E+03 17584   0.821E+01
DAV:   4    -0.160248638409E+04   -0.24818E+02   -0.22421E+02 15856   0.160E+01
DAV:   5    -0.160361897869E+04   -0.11326E+01   -0.11037E+01 16736   0.442E+00    0.378E+01
DAV:   6    -0.157117425703E+04    0.32445E+02   -0.11133E+02 17912   0.155E+01    0.233E+01
DAV:   7    -0.155895773230E+04    0.12217E+02   -0.97282E+01 17832   0.160E+01    0.184E+01
DAV:   8    -0.154785994838E+04    0.11098E+02   -0.68283E+01 16296   0.114E+01    0.110E+01
DAV:   9    -0.154158751210E+04    0.62724E+01   -0.27657E+01 16160   0.824E+00    0.339E+00
DAV:  10    -0.154135399073E+04    0.23352E+00   -0.49692E+00 15848   0.334E+00    0.167E+00
DAV:  11    -0.154133482221E+04    0.19169E-01   -0.89373E-01 15168   0.138E+00    0.115E+00
DAV:  12    -0.154131587175E+04    0.18950E-01   -0.25608E-01 14728   0.658E-01    0.666E-01
DAV:  13    -0.154130446320E+04    0.11409E-01   -0.66432E-02 14504   0.401E-01    0.400E-01
DAV:  14    -0.154130023216E+04    0.42310E-02   -0.24084E-02 16944   0.254E-01    0.256E-01
DAV:  15    -0.154129741319E+04    0.28190E-02   -0.11128E-02 15200   0.158E-01    0.954E-02
DAV:  16    -0.154129744133E+04   -0.28137E-04   -0.32269E-03 15832   0.774E-02    0.497E-02
DAV:  17    -0.154129742828E+04    0.13050E-04   -0.65981E-04 15104   0.392E-02    0.339E-02
DAV:  18    -0.154129740620E+04    0.22080E-04   -0.23272E-04 15736   0.252E-02    0.209E-02
DAV:  19    -0.154129738928E+04    0.16918E-04   -0.86579E-05 13384   0.150E-02    0.101E-02
DAV:  20    -0.154129738254E+04    0.67386E-05   -0.23091E-05  6960   0.836E-03
   1 F= -.15412974E+04 E0= -.15412951E+04  d E =-.154130E+04
       N       E                     dE             d eps       ncg     rms          rms(c)
DAV:   1    -0.154512895866E+04   -0.38316E+01   -0.26509E+03 11172   0.797E+01    0.278E+01
DAV:   2    -0.152272816298E+04    0.22401E+02   -0.18358E+02 19160   0.194E+01    0.214E+01
DAV:   3    -0.151066516882E+04    0.12063E+02   -0.11119E+02 18496   0.149E+01    0.154E+01
DAV:   4    -0.150162609958E+04    0.90391E+01   -0.56082E+01 20456   0.916E+00    0.107E+01
DAV:   5    -0.149733043903E+04    0.42957E+01   -0.32027E+01 18136   0.661E+00    0.445E+00
DAV:   6    -0.149678876915E+04    0.54167E+00   -0.86060E+00 17768   0.361E+00    0.297E+00
DAV:   7    -0.149660194193E+04    0.18683E+00   -0.14948E+00 16656   0.176E+00    0.212E+00
DAV:   8    -0.149652196960E+04    0.79972E-01   -0.49759E-01 18128   0.793E-01    0.117E+00
DAV:   9    -0.149650539523E+04    0.16574E-01   -0.31063E-01 17784   0.543E-01    0.479E-01
DAV:  10    -0.149650532014E+04    0.75096E-04   -0.62093E-02 17016   0.307E-01    0.361E-01
DAV:  11    -0.149650178791E+04    0.35322E-02   -0.21723E-02 18480   0.213E-01    0.215E-01
DAV:  12    -0.149650073021E+04    0.10577E-02   -0.10189E-02 19456   0.122E-01    0.104E-01
DAV:  13    -0.149650130266E+04   -0.57245E-03   -0.33046E-03 16672   0.643E-02    0.640E-02
DAV:  14    -0.149650152667E+04   -0.22401E-03   -0.12034E-03 17680   0.455E-02    0.491E-02
DAV:  15    -0.149650147889E+04    0.47780E-04   -0.43370E-04 17168   0.298E-02    0.291E-02
DAV:  16    -0.149650147030E+04    0.85858E-05   -0.20328E-04 17624   0.169E-02    0.134E-02
DAV:  17    -0.149650147374E+04   -0.34388E-05   -0.37066E-05  7720   0.826E-03
   2 F= -.14965015E+04 E0= -.14965061E+04  d E =0.447959E+02
       N       E                     dE             d eps       ncg     rms          rms(c)
DAV:   1    -0.157456010576E+04   -0.78059E+02   -0.13410E+03 11172   0.627E+01    0.193E+01
DAV:   2    -0.156077937492E+04    0.13781E+02   -0.50853E+01 17432   0.118E+01    0.110E+01
DAV:   3    -0.155742456862E+04    0.33548E+01   -0.35694E+01 18336   0.926E+00    0.890E+00
DAV:   4    -0.155385635093E+04    0.35682E+01   -0.16275E+01 16584   0.580E+00    0.537E+00
DAV:   5    -0.155247959688E+04    0.13768E+01   -0.82307E+00 15672   0.425E+00    0.186E+00
DAV:   6    -0.155240086105E+04    0.78736E-01   -0.17896E+00 15768   0.204E+00    0.110E+00
DAV:   7    -0.155238733203E+04    0.13529E-01   -0.32277E-01 14496   0.889E-01    0.784E-01
DAV:   8    -0.155238856559E+04   -0.12336E-02   -0.85248E-02 15512   0.383E-01    0.432E-01
DAV:   9    -0.155239847249E+04   -0.99069E-02   -0.50269E-02 16024   0.257E-01    0.223E-01
DAV:  10    -0.155240048744E+04   -0.20150E-02   -0.11509E-02 15912   0.181E-01    0.168E-01
DAV:  11    -0.155239996756E+04    0.51988E-03   -0.50476E-03 16432   0.111E-01    0.791E-02
DAV:  12    -0.155240033679E+04   -0.36923E-03   -0.22131E-03 16368   0.597E-02    0.446E-02
DAV:  13    -0.155240059895E+04   -0.26216E-03   -0.57883E-04 15208   0.327E-02    0.260E-02
DAV:  14    -0.155240061594E+04   -0.16993E-04   -0.16805E-04 15024   0.207E-02    0.159E-02
DAV:  15    -0.155240061452E+04    0.14204E-05   -0.51590E-05 10328   0.112E-02
   3 F= -.15524006E+04 E0= -.15524205E+04  d E =-.558991E+02
       N       E                     dE             d eps       ncg     rms          rms(c)
DAV:   1    -0.155285265862E+04   -0.45204E+00   -0.27984E+01 11172   0.752E+00    0.130E+00
DAV:   2    -0.155282253441E+04    0.30124E-01   -0.46388E-01 16192   0.866E-01    0.848E-01
DAV:   3    -0.155280787122E+04    0.14663E-01   -0.16009E-01 18120   0.615E-01    0.669E-01
DAV:   4    -0.155278710696E+04    0.20764E-01   -0.70076E-02 16176   0.402E-01    0.346E-01
DAV:   5    -0.155278259284E+04    0.45141E-02   -0.33463E-02 15024   0.275E-01    0.147E-01
DAV:   6    -0.155278213385E+04    0.45899E-03   -0.82401E-03 15240   0.146E-01    0.940E-02
DAV:   7    -0.155278196482E+04    0.16903E-03   -0.22770E-03 15944   0.761E-02    0.616E-02
DAV:   8    -0.155278192793E+04    0.36891E-04   -0.64268E-04 15112   0.362E-02    0.350E-02
DAV:   9    -0.155278195169E+04   -0.23766E-04   -0.24552E-04 14936   0.223E-02    0.216E-02
DAV:  10    -0.155278196539E+04   -0.13698E-04   -0.91381E-05 13872   0.165E-02    0.147E-02
DAV:  11    -0.155278196432E+04    0.10677E-05   -0.31462E-05  8328   0.102E-02
   4 F= -.15527820E+04 E0= -.15527986E+04  d E =-.381350E+00
       N       E                     dE             d eps       ncg     rms          rms(c)
DAV:   1    -0.155284800366E+04   -0.66038E-01   -0.48377E+00 11172   0.297E+00    0.489E-01
DAV:   2    -0.155286545592E+04   -0.17452E-01   -0.15569E-01 18304   0.642E-01    0.600E-01
DAV:   3    -0.155284228487E+04    0.23171E-01   -0.76413E-02 18040   0.446E-01    0.232E-01
DAV:   4    -0.155284057317E+04    0.17117E-02   -0.10726E-02 15752   0.139E-01    0.155E-01
DAV:   5    -0.155283987887E+04    0.69430E-03   -0.44513E-03 15928   0.103E-01    0.949E-02
DAV:   6    -0.155283958053E+04    0.29835E-03   -0.22273E-03 15704   0.769E-02    0.575E-02
DAV:   7    -0.155283942030E+04    0.16022E-03   -0.79723E-04 15216   0.443E-02    0.276E-02
DAV:   8    -0.155283942006E+04    0.24767E-06   -0.18029E-04 15000   0.180E-02    0.167E-02
DAV:   9    -0.155283942371E+04   -0.36522E-05   -0.38309E-05  8560   0.104E-02
   5 F= -.15528394E+04 E0= -.15528565E+04  d E =-.574594E-01
       N       E                     dE             d eps       ncg     rms          rms(c)
DAV:   1    -0.155286423484E+04   -0.24815E-01   -0.27108E+00 11172   0.220E+00    0.264E-01
DAV:   2    -0.155287305618E+04   -0.88213E-02   -0.57535E-02 17600   0.377E-01    0.372E-01
DAV:   3    -0.155286441133E+04    0.86448E-02   -0.25419E-02 17608   0.260E-01    0.140E-01
DAV:   4    -0.155286412405E+04    0.28727E-03   -0.35237E-03 16088   0.792E-02    0.987E-02
DAV:   5    -0.155286393085E+04    0.19320E-03   -0.16827E-03 15544   0.622E-02    0.548E-02
DAV:   6    -0.155286386893E+04    0.61917E-04   -0.77901E-04 16080   0.456E-02    0.308E-02
DAV:   7    -0.155286383347E+04    0.35468E-04   -0.26506E-04 15384   0.244E-02    0.137E-02
DAV:   8    -0.155286382566E+04    0.78083E-05   -0.42207E-05  8416   0.103E-02
   6 F= -.15528638E+04 E0= -.15528805E+04  d E =-.244019E-01
       N       E                     dE             d eps       ncg     rms          rms(c)
DAV:   1    -0.155287458515E+04   -0.10752E-01   -0.65689E-01 11277   0.113E+00    0.226E-01
DAV:   2    -0.155287702060E+04   -0.24355E-02   -0.24905E-02 18360   0.272E-01    0.264E-01
DAV:   3    -0.155287252045E+04    0.45001E-02   -0.14540E-02 18120   0.194E-01    0.104E-01
DAV:   4    -0.155287210270E+04    0.41775E-03   -0.22317E-03 15624   0.632E-02    0.671E-02
DAV:   5    -0.155287190478E+04    0.19792E-03   -0.99578E-04 16064   0.506E-02    0.400E-02
DAV:   6    -0.155287181276E+04    0.92024E-04   -0.44629E-04 15968   0.347E-02    0.222E-02
DAV:   7    -0.155287178621E+04    0.26551E-04   -0.13642E-04 14160   0.179E-02    0.117E-02
DAV:   8    -0.155287178759E+04   -0.13866E-05   -0.24979E-05  6832   0.810E-03
   7 F= -.15528718E+04 E0= -.15528887E+04  d E =-.796194E-02
       N       E                     dE             d eps       ncg     rms          rms(c)
DAV:   1    -0.155287882664E+04   -0.70404E-02   -0.48507E-01 11228   0.945E-01    0.129E-01
DAV:   2    -0.155288004902E+04   -0.12224E-02   -0.89177E-03 16896   0.150E-01    0.156E-01
DAV:   3    -0.155287864122E+04    0.14078E-02   -0.42305E-03 17040   0.107E-01    0.670E-02
DAV:   4    -0.155287858100E+04    0.60224E-04   -0.82175E-04 15480   0.394E-02    0.401E-02
DAV:   5    -0.155287856094E+04    0.20057E-04   -0.37217E-04 15928   0.303E-02    0.218E-02
DAV:   6    -0.155287855310E+04    0.78448E-05   -0.14067E-04 15048   0.196E-02    0.114E-02
DAV:   7    -0.155287854975E+04    0.33484E-05   -0.31635E-05  7576   0.101E-02
   8 F= -.15528785E+04 E0= -.15528952E+04  d E =-.676216E-02
       N       E                     dE             d eps       ncg     rms          rms(c)
DAV:   1    -0.155288253581E+04   -0.39827E-02   -0.35135E-01 11242   0.789E-01    0.111E-01
DAV:   2    -0.155288442354E+04   -0.18877E-02   -0.10416E-02 17944   0.176E-01    0.177E-01
DAV:   3    -0.155288226008E+04    0.21635E-02   -0.57998E-03 17640   0.124E-01    0.533E-02
DAV:   4    -0.155288219153E+04    0.68553E-04   -0.60317E-04 16136   0.321E-02    0.383E-02
DAV:   5    -0.155288214527E+04    0.46262E-04   -0.24490E-04 16448   0.247E-02    0.245E-02
DAV:   6    -0.155288211403E+04    0.31243E-04   -0.13972E-04 15168   0.191E-02    0.129E-02
DAV:   7    -0.155288210482E+04    0.92105E-05   -0.38133E-05  8480   0.103E-02
   9 F= -.15528821E+04 E0= -.15528988E+04  d E =-.355507E-02
       N       E                     dE             d eps       ncg     rms          rms(c)
DAV:   1    -0.155288382485E+04   -0.17108E-02   -0.16228E-01 11284   0.542E-01    0.699E-02
DAV:   2    -0.155288432604E+04   -0.50119E-03   -0.29565E-03 16768   0.886E-02    0.925E-02
DAV:   3    -0.155288380694E+04    0.51910E-03   -0.14597E-03 16808   0.631E-02    0.365E-02
DAV:   4    -0.155288380607E+04    0.86196E-06   -0.25645E-04 15480   0.219E-02    0.216E-02
DAV:   5    -0.155288380688E+04   -0.80294E-06   -0.98669E-05 13920   0.164E-02
  10 F= -.15528838E+04 E0= -.15529004E+04  d E =-.170206E-02
       N       E                     dE             d eps       ncg     rms          rms(c)
DAV:   1    -0.155288494872E+04   -0.11426E-02   -0.55393E-02 11326   0.324E-01    0.599E-02
DAV:   2    -0.155288513821E+04   -0.18949E-03   -0.17916E-03 18208   0.732E-02    0.738E-02
DAV:   3    -0.155288477974E+04    0.35847E-03   -0.10594E-03 17968   0.527E-02    0.281E-02
DAV:   4    -0.155288473974E+04    0.39999E-04   -0.15522E-04 15416   0.165E-02    0.182E-02
DAV:   5    -0.155288471492E+04    0.24828E-04   -0.65444E-05 12176   0.140E-02    0.109E-02
DAV:   6    -0.155288470166E+04    0.13254E-04   -0.23321E-05  7368   0.100E-02    0.476E-03
DAV:   7    -0.155288470013E+04    0.15313E-05   -0.85127E-06  6216   0.527E-03
  11 F= -.15528847E+04 E0= -.15529014E+04  d E =-.893255E-03
       N       E                     dE             d eps       ncg     rms          rms(c)
DAV:   1    -0.155288549124E+04   -0.78958E-03   -0.73423E-02 11312   0.360E-01    0.406E-02
DAV:   2    -0.155288578839E+04   -0.29716E-03   -0.14391E-03 17256   0.632E-02    0.661E-02
DAV:   3    -0.155288550385E+04    0.28455E-03   -0.73302E-04 17088   0.445E-02    0.220E-02
DAV:   4    -0.155288550647E+04   -0.26179E-05   -0.88429E-05 13136   0.131E-02    0.140E-02
DAV:   5    -0.155288550766E+04   -0.11973E-05   -0.28880E-05  8032   0.105E-02
  12 F= -.15528855E+04 E0= -.15529021E+04  d E =-.807531E-03
       N       E                     dE             d eps       ncg     rms          rms(c)
DAV:   1    -0.155288601672E+04   -0.51025E-03   -0.44155E-02 11312   0.281E-01    0.381E-02
DAV:   2    -0.155288618084E+04   -0.16412E-03   -0.10886E-03 18104   0.552E-02    0.561E-02
DAV:   3    -0.155288596937E+04    0.21146E-03   -0.57947E-04 17864   0.390E-02    0.190E-02
DAV:   4    -0.155288595380E+04    0.15572E-04   -0.61540E-05 11520   0.108E-02    0.127E-02
DAV:   5    -0.155288594324E+04    0.10561E-04   -0.21559E-05  7120   0.933E-03    0.776E-03
DAV:   6    -0.155288593600E+04    0.72377E-05   -0.93766E-06  6440   0.683E-03
  13 F= -.15528859E+04 E0= -.15529026E+04  d E =-.428340E-03
       N       E                     dE             d eps       ncg     rms          rms(c)
DAV:   1    -0.155288617352E+04   -0.23028E-03   -0.15616E-02 11326   0.170E-01    0.237E-02
DAV:   2    -0.155288620546E+04   -0.31941E-04   -0.21650E-04 16648   0.219E-02    0.227E-02
DAV:   3    -0.155288618350E+04    0.21964E-04   -0.83137E-05 12872   0.154E-02    0.124E-02
DAV:   4    -0.155288619003E+04   -0.65315E-05   -0.20547E-05  6512   0.766E-03    0.598E-03
DAV:   5    -0.155288619546E+04   -0.54337E-05   -0.81669E-06  6216   0.578E-03
  14 F= -.15528862E+04 E0= -.15529028E+04  d E =-.259462E-03
       N       E                     dE             d eps       ncg     rms          rms(c)
DAV:   1    -0.155288644356E+04   -0.25353E-03   -0.17766E-02 11312   0.178E-01    0.228E-02
DAV:   2    -0.155288649685E+04   -0.53289E-04   -0.37960E-04 18248   0.325E-02    0.330E-02
DAV:   3    -0.155288642417E+04    0.72672E-04   -0.19560E-04 16856   0.228E-02    0.118E-02
DAV:   4    -0.155288641636E+04    0.78184E-05   -0.17889E-05  6968   0.695E-03    0.752E-03
DAV:   5    -0.155288641101E+04    0.53417E-05   -0.94095E-06  6216   0.600E-03
  15 F= -.15528864E+04 E0= -.15529030E+04  d E =-.215549E-03
       N       E                     dE             d eps       ncg     rms          rms(c)
DAV:   1    -0.155288658844E+04   -0.17209E-03   -0.18876E-02 11312   0.182E-01    0.184E-02
DAV:   2    -0.155288663225E+04   -0.43811E-04   -0.25785E-04 17536   0.243E-02    0.244E-02
DAV:   3    -0.155288659908E+04    0.33172E-04   -0.92452E-05 13488   0.163E-02    0.110E-02
DAV:   4    -0.155288660140E+04   -0.23157E-05   -0.17018E-05  6408   0.680E-03    0.582E-03
DAV:   5    -0.155288660388E+04   -0.24806E-05   -0.75017E-06  6200   0.565E-03
  16 F= -.15528866E+04 E0= -.15529032E+04  d E =-.192863E-03
       N       E                     dE             d eps       ncg     rms          rms(c)
DAV:   1    -0.155288672182E+04   -0.12042E-03   -0.81197E-03 11326   0.121E-01    0.167E-02
DAV:   2    -0.155288672762E+04   -0.58038E-05   -0.14665E-04 15864   0.201E-02    0.193E-02
DAV:   3    -0.155288670311E+04    0.24517E-04   -0.68827E-05 12120   0.143E-02    0.830E-03
DAV:   4    -0.155288669699E+04    0.61123E-05   -0.12079E-05  6264   0.594E-03    0.519E-03
DAV:   5    -0.155288669218E+04    0.48104E-05   -0.59270E-06  5992   0.466E-03
  17 F= -.15528867E+04 E0= -.15529033E+04  d E =-.883072E-04
       N       E                     dE             d eps       ncg     rms          rms(c)
DAV:   1    -0.155288676508E+04   -0.68089E-04   -0.47506E-03 11326   0.926E-02    0.113E-02
DAV:   2    -0.155288677479E+04   -0.97076E-05   -0.41449E-05  9128   0.103E-02    0.971E-03
DAV:   3    -0.155288677269E+04    0.20962E-05   -0.14049E-05  6832   0.735E-03    0.613E-03
DAV:   4    -0.155288677722E+04   -0.45269E-05   -0.75465E-06  5976   0.440E-03    0.311E-03
DAV:   5    -0.155288677990E+04   -0.26804E-05   -0.37839E-06  5968   0.364E-03
  18 F= -.15528868E+04 E0= -.15529034E+04  d E =-.877180E-04
       N       E                     dE             d eps       ncg     rms          rms(c)
DAV:   1    -0.155288686902E+04   -0.91800E-04   -0.77413E-03 11298   0.116E-01    0.120E-02
DAV:   2    -0.155288687813E+04   -0.91093E-05   -0.98532E-05 14240   0.155E-02    0.145E-02
DAV:   3    -0.155288686528E+04    0.12852E-04   -0.29585E-05  8344   0.109E-02    0.711E-03
DAV:   4    -0.155288686277E+04    0.25098E-05   -0.11770E-05  5976   0.517E-03    0.406E-03
DAV:   5    -0.155288686101E+04    0.17630E-05   -0.55589E-06  5936   0.476E-03
  19 F= -.15528869E+04 E0= -.15529035E+04  d E =-.811038E-04
       N       E                     dE             d eps       ncg     rms          rms(c)
DAV:   1    -0.155288691606E+04   -0.53291E-04   -0.48473E-03 11312   0.923E-02    0.916E-03
DAV:   2    -0.155288692505E+04   -0.89929E-05   -0.38070E-05  8848   0.107E-02    0.952E-03
DAV:   3    -0.155288692182E+04    0.32327E-05   -0.14346E-05  6808   0.766E-03    0.531E-03
DAV:   4    -0.155288692518E+04   -0.33567E-05   -0.75788E-06  5880   0.417E-03    0.249E-03
DAV:   5    -0.155288692683E+04   -0.16516E-05   -0.36733E-06  5880   0.375E-03
  20 F= -.15528869E+04 E0= -.15529035E+04  d E =-.658229E-04
       N       E                     dE             d eps       ncg     rms          rms(c)
DAV:   1    -0.155288697629E+04   -0.51108E-04   -0.30156E-03 11312   0.732E-02    0.897E-03
DAV:   2    -0.155288697268E+04    0.36053E-05   -0.26889E-05  7488   0.997E-03    0.817E-03
DAV:   3    -0.155288696873E+04    0.39520E-05   -0.11897E-05  6712   0.798E-03    0.461E-03
DAV:   4    -0.155288696540E+04    0.33312E-05   -0.56838E-06  5859   0.381E-03    0.255E-03
DAV:   5    -0.155288696368E+04    0.17139E-05   -0.31307E-06  5859   0.339E-03
  21 F= -.15528870E+04 E0= -.15529036E+04  d E =-.368540E-04
       N       E                     dE             d eps       ncg     rms          rms(c)
DAV:   1    -0.155288699832E+04   -0.32922E-04   -0.25662E-03 11298   0.671E-02    0.700E-03
DAV:   2    -0.155288700261E+04   -0.42930E-05   -0.18081E-05  6640   0.673E-03    0.551E-03
DAV:   3    -0.155288700311E+04   -0.49382E-06   -0.73004E-06  6042   0.474E-03    0.400E-03
DAV:   4    -0.155288700554E+04   -0.24357E-05   -0.43738E-06  5859   0.344E-03    0.190E-03
DAV:   5    -0.155288700691E+04   -0.13664E-05   -0.25093E-06  5859   0.291E-03
  22 F= -.15528870E+04 E0= -.15529036E+04  d E =-.432248E-04
       N       E                     dE             d eps       ncg     rms          rms(c)
DAV:   1    -0.155288704831E+04   -0.42766E-04   -0.34052E-03 11298   0.769E-02    0.740E-03
DAV:   2    -0.155288704732E+04    0.98261E-06   -0.24432E-05  8088   0.817E-03    0.631E-03
DAV:   3    -0.155288704615E+04    0.11785E-05   -0.92928E-06  6096   0.593E-03    0.437E-03
DAV:   4    -0.155288704405E+04    0.20931E-05   -0.53168E-06  5859   0.362E-03    0.199E-03
DAV:   5    -0.155288704338E+04    0.67729E-06   -0.29187E-06  5859   0.317E-03
  23 F= -.15528870E+04 E0= -.15529036E+04  d E =-.364684E-04
       N       E                     dE             d eps       ncg     rms          rms(c)
DAV:   1    -0.155288706751E+04   -0.23453E-04   -0.19280E-03 11298   0.581E-02    0.590E-03
DAV:   2    -0.155288707124E+04   -0.37346E-05   -0.13735E-05  5888   0.562E-03    0.430E-03
DAV:   3    -0.155288707229E+04   -0.10518E-05   -0.56087E-06  5873   0.388E-03    0.325E-03
DAV:   4    -0.155288707442E+04   -0.21292E-05   -0.32714E-06  5838   0.303E-03    0.150E-03
DAV:   5    -0.155288707559E+04   -0.11688E-05   -0.19373E-06  5838   0.246E-03
  24 F= -.15528871E+04 E0= -.15529037E+04  d E =-.322150E-04
       N       E                     dE             d eps       ncg     rms          rms(c)
DAV:   1    -0.155288710024E+04   -0.25821E-04   -0.13310E-03 11298   0.483E-02    0.525E-03
DAV:   2    -0.155288709765E+04    0.25908E-05   -0.10119E-05  6294   0.526E-03    0.392E-03
DAV:   3    -0.155288709700E+04    0.65098E-06   -0.42755E-06  5934   0.405E-03    0.290E-03
DAV:   4    -0.155288709518E+04    0.18218E-05   -0.23888E-06  5817   0.256E-03    0.145E-03
DAV:   5    -0.155288709428E+04    0.90379E-06   -0.14086E-06  5817   0.213E-03
  25 F= -.15528871E+04 E0= -.15529037E+04  d E =-.186848E-04
       N       E                     dE             d eps       ncg     rms          rms(c)
DAV:   1    -0.155288711736E+04   -0.22182E-04   -0.20427E-03 11298   0.595E-02    0.537E-03
DAV:   2    -0.155288711946E+04   -0.20947E-05   -0.12724E-05  6736   0.540E-03    0.413E-03
DAV:   3    -0.155288712001E+04   -0.55590E-06   -0.49207E-06  5904   0.347E-03    0.316E-03
DAV:   4    -0.155288712135E+04   -0.13333E-05   -0.31717E-06  5817   0.283E-03    0.963E-04
DAV:   5    -0.155288712173E+04   -0.38099E-06   -0.16523E-06  5817   0.224E-03
  26 F= -.15528871E+04 E0= -.15529037E+04  d E =-.274505E-04
       N       E                     dE             d eps       ncg     rms          rms(c)
DAV:   1    -0.155288714984E+04   -0.28500E-04   -0.27711E-03 11298   0.694E-02    0.668E-03
DAV:   2    -0.155288714752E+04    0.23239E-05   -0.18186E-05  6912   0.677E-03    0.503E-03
DAV:   3    -0.155288714696E+04    0.56445E-06   -0.71167E-06  5992   0.477E-03    0.386E-03
DAV:   4    -0.155288714478E+04    0.21812E-05   -0.40800E-06  5817   0.326E-03    0.174E-03
DAV:   5    -0.155288714397E+04    0.80562E-06   -0.23415E-06  5817   0.265E-03
  27 F= -.15528871E+04 E0= -.15529037E+04  d E =-.222434E-04
       N       E                     dE             d eps       ncg     rms          rms(c)
DAV:   1    -0.155288714836E+04   -0.35825E-05   -0.19020E-04 11088   0.193E-02    0.365E-03
DAV:   2    -0.155288715140E+04   -0.30411E-05   -0.31626E-06  5796   0.284E-03    0.223E-03
DAV:   3    -0.155288715216E+04   -0.75952E-06   -0.14902E-06  5796   0.243E-03    0.173E-03
DAV:   4    -0.155288715353E+04   -0.13707E-05   -0.79938E-07  5796   0.151E-03    0.926E-04
DAV:   5    -0.155288715460E+04   -0.10725E-05   -0.47805E-07  5796   0.118E-03
  28 F= -.15528872E+04 E0= -.15529037E+04  d E =-.106320E-04
       N       E                     dE             d eps       ncg     rms          rms(c)
DAV:   1    -0.155288717392E+04   -0.20388E-04   -0.16044E-03 11298   0.527E-02    0.468E-03
DAV:   2    -0.155288717371E+04    0.20572E-06   -0.92388E-06  5900   0.467E-03    0.360E-03
DAV:   3    -0.155288717366E+04    0.46235E-07   -0.34461E-06  5796   0.294E-03    0.281E-03
DAV:   4    -0.155288717293E+04    0.73354E-06   -0.22220E-06  5796   0.228E-03    0.809E-04
DAV:   5    -0.155288717291E+04    0.20346E-07   -0.11220E-06  5796   0.175E-03
  29 F= -.15528872E+04 E0= -.15529038E+04  d E =-.183094E-04
       N       E                     dE             d eps       ncg     rms          rms(c)
DAV:   1    -0.155288721474E+04   -0.41811E-04   -0.16693E-02 11242   0.170E-01    0.145E-02
DAV:   2    -0.155288722668E+04   -0.11941E-04   -0.14818E-04 15632   0.142E-02    0.114E-02
DAV:   3    -0.155288722619E+04    0.49295E-06   -0.81488E-06  6563   0.542E-03    0.891E-03
DAV:   4    -0.155288722591E+04    0.28367E-06   -0.77840E-06  6160   0.518E-03    0.258E-03
DAV:   5    -0.155288722624E+04   -0.33244E-06   -0.25722E-06  5873   0.348E-03
  30 F= -.15528872E+04 E0= -.15529038E+04  d E =-.533286E-04
       N       E                     dE             d eps       ncg     rms          rms(c)
DAV:   1    -0.155288720401E+04    0.21900E-04   -0.57821E-03 11256   0.101E-01    0.989E-03
DAV:   2    -0.155288719937E+04    0.46400E-05   -0.30528E-05  8008   0.846E-03    0.715E-03
DAV:   3    -0.155288719793E+04    0.14346E-05   -0.93154E-06  5845   0.520E-03    0.557E-03
DAV:   4    -0.155288719332E+04    0.46154E-05   -0.59693E-06  5817   0.403E-03    0.183E-03
DAV:   5    -0.155288719248E+04    0.83231E-06   -0.27907E-06  5817   0.274E-03
  31 F= -.15528872E+04 E0= -.15529038E+04  d E =0.337551E-04
       N       E                     dE             d eps       ncg     rms          rms(c)
DAV:   1    -0.155288721949E+04   -0.26172E-04   -0.51731E-03 11270   0.948E-02    0.806E-03
DAV:   2    -0.155288722073E+04   -0.12439E-05   -0.23490E-05  7408   0.770E-03    0.621E-03
DAV:   3    -0.155288722076E+04   -0.30126E-07   -0.69780E-06  5845   0.429E-03    0.488E-03
DAV:   4    -0.155288722068E+04    0.87347E-07   -0.49568E-06  5838   0.351E-03    0.145E-03
DAV:   5    -0.155288722088E+04   -0.20147E-06   -0.21028E-06  5838   0.247E-03
  32 F= -.15528872E+04 E0= -.15529038E+04  d E =-.283928E-04
       N       E                     dE             d eps       ncg     rms          rms(c)
DAV:   1    -0.155288725207E+04   -0.31390E-04   -0.18021E-02 11242   0.176E-01    0.147E-02
DAV:   2    -0.155288726400E+04   -0.11932E-04   -0.16156E-04 15712   0.148E-02    0.117E-02
DAV:   3    -0.155288726305E+04    0.94963E-06   -0.82099E-06  6385   0.557E-03    0.927E-03
DAV:   4    -0.155288726150E+04    0.15507E-05   -0.85800E-06  5960   0.524E-03    0.235E-03
DAV:   5    -0.155288726158E+04   -0.87550E-07   -0.24855E-06  5880   0.337E-03
  33 F= -.15528873E+04 E0= -.15529039E+04  d E =-.407075E-04
       N       E                     dE             d eps       ncg     rms          rms(c)
DAV:   1    -0.155288727137E+04   -0.98704E-05   -0.22545E-03 11284   0.625E-02    0.518E-03
DAV:   2    -0.155288727088E+04    0.48908E-06   -0.13713E-05  6352   0.581E-03    0.416E-03
DAV:   3    -0.155288727065E+04    0.22611E-06   -0.49318E-06  5873   0.372E-03    0.312E-03
DAV:   4    -0.155288726945E+04    0.12071E-05   -0.29211E-06  5817   0.259E-03    0.114E-03
DAV:   5    -0.155288726922E+04    0.22946E-06   -0.15670E-06  5817   0.211E-03
  34 F= -.15528873E+04 E0= -.15529039E+04  d E =-.763116E-05
       N       E                     dE             d eps       ncg     rms          rms(c)
DAV:   1    -0.155288726653E+04    0.29146E-05   -0.64654E-05 10850   0.118E-02    0.264E-03
DAV:   2    -0.155288726881E+04   -0.22823E-05   -0.11141E-06  5775   0.200E-03    0.167E-03
DAV:   3    -0.155288726921E+04   -0.39773E-06   -0.49069E-07  5775   0.171E-03    0.120E-03
DAV:   4    -0.155288727025E+04   -0.10421E-05   -0.21904E-07  5775   0.867E-04    0.581E-04
DAV:   5    -0.155288727104E+04   -0.78392E-06   -0.12305E-07  5775   0.592E-04
  35 F= -.15528873E+04 E0= -.15529039E+04  d E =-.182098E-05
       N       E                     dE             d eps       ncg     rms          rms(c)
DAV:   1    -0.155288727607E+04   -0.58147E-05   -0.39810E-04 11258   0.263E-02    0.236E-03
DAV:   2    -0.155288727531E+04    0.75813E-06   -0.21969E-06  5775   0.226E-03    0.170E-03
DAV:   3    -0.155288727498E+04    0.32827E-06   -0.82180E-07  5775   0.139E-03    0.118E-03
DAV:   4    -0.155288727447E+04    0.50835E-06   -0.46623E-07  5775   0.115E-03    0.537E-04
DAV:   5    -0.155288727428E+04    0.18850E-06   -0.27057E-07  5775   0.851E-04
  36 F= -.15528873E+04 E0= -.15529039E+04  d E =-.324752E-05
       N       E                     dE             d eps       ncg     rms          rms(c)
DAV:   1    -0.155288727869E+04   -0.42201E-05   -0.81565E-04 11284   0.375E-02    0.322E-03
DAV:   2    -0.155288727918E+04   -0.48420E-06   -0.46876E-06  5775   0.325E-03    0.246E-03
DAV:   3    -0.155288727933E+04   -0.15098E-06   -0.17503E-06  5768   0.195E-03    0.189E-03
DAV:   4    -0.155288727956E+04   -0.22980E-06   -0.11523E-06  5775   0.164E-03    0.511E-04
DAV:   5    -0.155288727961E+04   -0.54829E-07   -0.56688E-07  5775   0.121E-03
  37 F= -.15528873E+04 E0= -.15529039E+04  d E =-.532840E-05
       N       E                     dE             d eps       ncg     rms          rms(c)
DAV:   1    -0.155288728508E+04   -0.55192E-05   -0.63300E-04 11284   0.334E-02    0.374E-03
DAV:   2    -0.155288728250E+04    0.25747E-05   -0.45639E-06  5775   0.337E-03    0.249E-03
DAV:   3    -0.155288728187E+04    0.63509E-06   -0.18463E-06  5775   0.251E-03    0.195E-03
DAV:   4    -0.155288728053E+04    0.13357E-05   -0.10082E-06  5775   0.175E-03    0.101E-03
DAV:   5    -0.155288727971E+04    0.82143E-06   -0.61262E-07  5775   0.133E-03
  38 F= -.15528873E+04 E0= -.15529039E+04  d E =-.975392E-07
       N       E                     dE             d eps       ncg     rms          rms(c)
DAV:   1    -0.155288727797E+04    0.25642E-05   -0.46901E-05 10338   0.100E-02    0.215E-03
DAV:   2    -0.155288727989E+04   -0.19215E-05   -0.85129E-07  5775   0.171E-03    0.132E-03
DAV:   3    -0.155288728026E+04   -0.37462E-06   -0.29098E-07  5775   0.133E-03    0.979E-04
DAV:   4    -0.155288728116E+04   -0.89242E-06   -0.12107E-07  5775   0.685E-04    0.460E-04
DAV:   5    -0.155288728179E+04   -0.63874E-06   -0.61075E-08  5775   0.424E-04
  39 F= -.15528873E+04 E0= -.15529039E+04  d E =-.208448E-05
       N       E                     dE             d eps       ncg     rms          rms(c)
DAV:   1    -0.155288728340E+04   -0.22398E-05   -0.20212E-04 11066   0.187E-02    0.157E-03
DAV:   2    -0.155288728365E+04   -0.25012E-06   -0.11360E-06  5775   0.163E-03    0.117E-03
DAV:   3    -0.155288728373E+04   -0.81174E-07   -0.39098E-07  5775   0.939E-04    0.860E-04
DAV:   4    -0.155288728387E+04   -0.14519E-06   -0.24216E-07  5775   0.799E-04    0.274E-04
DAV:   5    -0.155288728389E+04   -0.20840E-07   -0.12351E-07  5775   0.569E-04
  40 F= -.15528873E+04 E0= -.15529039E+04  d E =-.209844E-05
       N       E                     dE             d eps       ncg     rms          rms(c)
DAV:   1    -0.155288728821E+04   -0.43352E-05   -0.71755E-04 11270   0.353E-02    0.336E-03
DAV:   2    -0.155288728670E+04    0.15116E-05   -0.41529E-06  5775   0.312E-03    0.237E-03
DAV:   3    -0.155288728622E+04    0.47316E-06   -0.15595E-06  5768   0.203E-03    0.180E-03
DAV:   4    -0.155288728522E+04    0.10068E-05   -0.88096E-07  5775   0.158E-03    0.769E-04
DAV:   5    -0.155288728481E+04    0.40949E-06   -0.50878E-07  5775   0.115E-03
  41 F= -.15528873E+04 E0= -.15529039E+04  d E =-.913343E-06
       N       E                     dE             d eps       ncg     rms          rms(c)
DAV:   1    -0.155288728283E+04    0.23853E-05   -0.99124E-05 10916   0.136E-02    0.199E-03
DAV:   2    -0.155288728438E+04   -0.15486E-05   -0.70804E-07  5775   0.150E-03    0.125E-03
DAV:   3    -0.155288728472E+04   -0.34426E-06   -0.24687E-07  5768   0.113E-03    0.977E-04
DAV:   4    -0.155288728547E+04   -0.74166E-06   -0.10765E-07  5775   0.644E-04    0.466E-04
DAV:   5    -0.155288728601E+04   -0.53993E-06   -0.56515E-08  5775   0.405E-04
  42 F= -.15528873E+04 E0= -.15529039E+04  d E =-.119865E-05
       N       E                     dE             d eps       ncg     rms          rms(c)
DAV:   1    -0.155288728765E+04   -0.21893E-05   -0.17917E-04 11052   0.176E-02    0.145E-03
DAV:   2    -0.155288728771E+04   -0.50349E-07   -0.94412E-07  5754   0.150E-03    0.108E-03
DAV:   3    -0.155288728771E+04   -0.80781E-08   -0.30834E-07  5754   0.836E-04    0.781E-04
DAV:   4    -0.155288728770E+04    0.12456E-07   -0.19149E-07  5754   0.713E-04    0.245E-04
DAV:   5    -0.155288728770E+04    0.14552E-09   -0.94664E-08  5754   0.491E-04
  43 F= -.15528873E+04 E0= -.15529039E+04  d E =-.169523E-05
       N       E                     dE             d eps       ncg     rms          rms(c)
DAV:   1    -0.155288729215E+04   -0.44501E-05   -0.30946E-03 11256   0.731E-02    0.616E-03
DAV:   2    -0.155288729240E+04   -0.25190E-06   -0.15982E-05  6840   0.601E-03    0.459E-03
DAV:   3    -0.155288729207E+04    0.33502E-06   -0.63189E-06  5880   0.349E-03    0.202E-03
DAV:   4    -0.155288729202E+04    0.49556E-07   -0.32300E-06  5817   0.295E-03    0.108E-03
DAV:   5    -0.155288729212E+04   -0.10015E-06   -0.17482E-06  5817   0.212E-03
  44 F= -.15528873E+04 E0= -.15529039E+04  d E =-.441773E-05
