       N       E                     dE             d eps       ncg     rms          rms(c)
DAV:   1     0.219415546844E+04    0.21942E+04   -0.29004E+05 11620   0.143E+03
DAV:   2    -0.119632961163E+04   -0.33905E+04   -0.32541E+04 13478   0.295E+02
DAV:   3    -0.162589181671E+04   -0.42956E+03   -0.39655E+03 18048   0.817E+01
DAV:   4    -0.165042717564E+04   -0.24535E+02   -0.22875E+02 16280   0.171E+01
DAV:   5    -0.165150132604E+04   -0.10742E+01   -0.10545E+01 17760   0.419E+00    0.415E+01
DAV:   6    -0.161046306840E+04    0.41038E+02   -0.17115E+02 17944   0.180E+01    0.240E+01
DAV:   7    -0.159605277738E+04    0.14410E+02   -0.10963E+02 18536   0.171E+01    0.180E+01
DAV:   8    -0.158625248846E+04    0.98003E+01   -0.67518E+01 17168   0.123E+01    0.107E+01
DAV:   9    -0.158005708469E+04    0.61954E+01   -0.27076E+01 16544   0.863E+00    0.330E+00
DAV:  10    -0.157994710034E+04    0.10998E+00   -0.55770E+00 16848   0.345E+00    0.181E+00
DAV:  11    -0.157992683623E+04    0.20264E-01   -0.87138E-01 15816   0.141E+00    0.133E+00
DAV:  12    -0.157989665840E+04    0.30178E-01   -0.27918E-01 14000   0.763E-01    0.709E-01
DAV:  13    -0.157988537891E+04    0.11279E-01   -0.68903E-02 14456   0.465E-01    0.402E-01
DAV:  14    -0.157987954600E+04    0.58329E-02   -0.26307E-02 15688   0.287E-01    0.220E-01
DAV:  15    -0.157987775006E+04    0.17959E-02   -0.12429E-02 15368   0.161E-01    0.878E-02
DAV:  16    -0.157987775692E+04   -0.68607E-05   -0.34491E-03 16776   0.842E-02    0.488E-02
DAV:  17    -0.157987774489E+04    0.12029E-04   -0.72685E-04 16216   0.436E-02    0.354E-02
DAV:  18    -0.157987769701E+04    0.47883E-04   -0.26903E-04 16016   0.274E-02    0.190E-02
DAV:  19    -0.157987768100E+04    0.16011E-04   -0.88646E-05 13520   0.143E-02    0.844E-03
DAV:  20    -0.157987767940E+04    0.15963E-05   -0.21936E-05  7368   0.764E-03
   1 F= -.15798777E+04 E0= -.15798835E+04  d E =-.157988E+04
       N       E                     dE             d eps       ncg     rms          rms(c)
DAV:   1    -0.158401195392E+04   -0.41343E+01   -0.15195E+03 11620   0.590E+01    0.211E+01
DAV:   2    -0.156749337144E+04    0.16519E+02   -0.93086E+01 17888   0.137E+01    0.126E+01
DAV:   3    -0.156207444322E+04    0.54189E+01   -0.54476E+01 19352   0.109E+01    0.934E+00
DAV:   4    -0.155853736607E+04    0.35371E+01   -0.19668E+01 19552   0.672E+00    0.617E+00
DAV:   5    -0.155695901534E+04    0.15784E+01   -0.12154E+01 17680   0.470E+00    0.288E+00
DAV:   6    -0.155665377050E+04    0.30524E+00   -0.31134E+00 18008   0.263E+00    0.163E+00
DAV:   7    -0.155658585491E+04    0.67916E-01   -0.66119E-01 16736   0.119E+00    0.103E+00
DAV:   8    -0.155657608826E+04    0.97666E-02   -0.17747E-01 17064   0.488E-01    0.551E-01
DAV:   9    -0.155658104208E+04   -0.49538E-02   -0.81536E-02 17784   0.322E-01    0.322E-01
DAV:  10    -0.155658244514E+04   -0.14031E-02   -0.27663E-02 16720   0.259E-01    0.262E-01
DAV:  11    -0.155657977891E+04    0.26662E-02   -0.10809E-02 16768   0.154E-01    0.120E-01
DAV:  12    -0.155657970212E+04    0.76786E-04   -0.46260E-03 18192   0.834E-02    0.666E-02
DAV:  13    -0.155657983689E+04   -0.13477E-03   -0.12513E-03 16752   0.483E-02    0.475E-02
DAV:  14    -0.155657994505E+04   -0.10816E-03   -0.61531E-04 16216   0.337E-02    0.231E-02
DAV:  15    -0.155657996351E+04   -0.18460E-04   -0.17737E-04 14808   0.178E-02    0.124E-02
DAV:  16    -0.155657996575E+04   -0.22427E-05   -0.33655E-05  8048   0.898E-03
   2 F= -.15565800E+04 E0= -.15565860E+04  d E =0.232977E+02
       N       E                     dE             d eps       ncg     rms          rms(c)
DAV:   1    -0.159858036498E+04   -0.42000E+02   -0.71850E+02 11620   0.448E+01    0.149E+01
DAV:   2    -0.158919066134E+04    0.93897E+01   -0.27682E+01 16937   0.860E+00    0.740E+00
DAV:   3    -0.158759477201E+04    0.15959E+01   -0.16252E+01 17216   0.623E+00    0.593E+00
DAV:   4    -0.158600196203E+04    0.15928E+01   -0.72795E+00 17568   0.459E+00    0.334E+00
DAV:   5    -0.158544903370E+04    0.55293E+00   -0.36599E+00 16600   0.304E+00    0.122E+00
DAV:   6    -0.158541920586E+04    0.29828E-01   -0.80744E-01 16024   0.145E+00    0.785E-01
DAV:   7    -0.158541195481E+04    0.72510E-02   -0.15202E-01 15376   0.612E-01    0.541E-01
DAV:   8    -0.158541544773E+04   -0.34929E-02   -0.42494E-02 15512   0.263E-01    0.279E-01
DAV:   9    -0.158542452559E+04   -0.90779E-02   -0.30825E-02 16496   0.213E-01    0.214E-01
DAV:  10    -0.158542402212E+04    0.50346E-03   -0.60965E-03 16128   0.144E-01    0.150E-01
DAV:  11    -0.158542325778E+04    0.76434E-03   -0.44116E-03 17136   0.899E-02    0.516E-02
DAV:  12    -0.158542353130E+04   -0.27352E-03   -0.15139E-03 16888   0.504E-02    0.492E-02
DAV:  13    -0.158542369510E+04   -0.16380E-03   -0.33300E-04 15200   0.285E-02    0.339E-02
DAV:  14    -0.158542369435E+04    0.74421E-06   -0.17367E-04 16168   0.179E-02    0.114E-02
DAV:  15    -0.158542368909E+04    0.52588E-05   -0.33790E-05  7744   0.870E-03
   3 F= -.15854237E+04 E0= -.15854092E+04  d E =-.288437E+02
       N       E                     dE             d eps       ncg     rms          rms(c)
DAV:   1    -0.158553730533E+04   -0.11361E+00   -0.12282E+01 11620   0.462E+00    0.644E-01
DAV:   2    -0.158554661301E+04   -0.93077E-02   -0.21710E-01 16768   0.682E-01    0.527E-01
DAV:   3    -0.158553473195E+04    0.11881E-01   -0.67503E-02 17944   0.437E-01    0.330E-01
DAV:   4    -0.158553181431E+04    0.29176E-02   -0.15793E-02 16400   0.193E-01    0.203E-01
DAV:   5    -0.158553100032E+04    0.81399E-03   -0.87578E-03 16096   0.154E-01    0.112E-01
DAV:   6    -0.158553054616E+04    0.45416E-03   -0.35494E-03 16192   0.102E-01    0.555E-02
DAV:   7    -0.158553047972E+04    0.66435E-04   -0.92326E-04 16312   0.469E-02    0.347E-02
DAV:   8    -0.158553045755E+04    0.22176E-04   -0.23243E-04 15920   0.214E-02    0.206E-02
DAV:   9    -0.158553045499E+04    0.25573E-05   -0.78902E-05 13912   0.146E-02
   4 F= -.15855305E+04 E0= -.15855168E+04  d E =-.106766E+00
       N       E                     dE             d eps       ncg     rms          rms(c)
DAV:   1    -0.158555253263E+04   -0.22075E-01   -0.25110E+00 11620   0.207E+00    0.296E-01
DAV:   2    -0.158555861662E+04   -0.60840E-02   -0.59999E-02 17680   0.420E-01    0.340E-01
DAV:   3    -0.158555088685E+04    0.77298E-02   -0.26894E-02 17832   0.278E-01    0.145E-01
DAV:   4    -0.158555038166E+04    0.50518E-03   -0.37872E-03 16896   0.915E-02    0.103E-01
DAV:   5    -0.158555009235E+04    0.28931E-03   -0.18673E-03 16272   0.720E-02    0.607E-02
DAV:   6    -0.158554993105E+04    0.16130E-03   -0.97935E-04 15976   0.519E-02    0.301E-02
DAV:   7    -0.158554990119E+04    0.29861E-04   -0.25403E-04 14864   0.244E-02    0.169E-02
DAV:   8    -0.158554990269E+04   -0.15037E-05   -0.50969E-05 10760   0.111E-02
   5 F= -.15855499E+04 E0= -.15855359E+04  d E =-.194477E-01
       N       E                     dE             d eps       ncg     rms          rms(c)
DAV:   1    -0.158555668219E+04   -0.67810E-02   -0.51566E-01 11718   0.996E-01    0.197E-01
DAV:   2    -0.158555597800E+04    0.70419E-03   -0.84722E-03 16496   0.143E-01    0.127E-01
DAV:   3    -0.158555551339E+04    0.46461E-03   -0.38607E-03 18192   0.106E-01    0.929E-02
DAV:   4    -0.158555519160E+04    0.32179E-03   -0.13813E-03 16056   0.571E-02    0.445E-02
DAV:   5    -0.158555519516E+04   -0.35637E-05   -0.62837E-04 16104   0.416E-02    0.271E-02
DAV:   6    -0.158555517040E+04    0.24764E-04   -0.20982E-04 15760   0.252E-02    0.129E-02
DAV:   7    -0.158555516863E+04    0.17748E-05   -0.34020E-05  8176   0.965E-03
   6 F= -.15855552E+04 E0= -.15855415E+04  d E =-.526594E-02
       N       E                     dE             d eps       ncg     rms          rms(c)
DAV:   1    -0.158556120372E+04   -0.60333E-02   -0.33067E-01 11704   0.778E-01    0.151E-01
DAV:   2    -0.158556160189E+04   -0.39818E-03   -0.97342E-03 18128   0.172E-01    0.145E-01
DAV:   3    -0.158556025356E+04    0.13483E-02   -0.51352E-03 18464   0.120E-01    0.683E-02
DAV:   4    -0.158556006838E+04    0.18518E-03   -0.88500E-04 16240   0.446E-02    0.438E-02
DAV:   5    -0.158555997663E+04    0.91753E-04   -0.43258E-04 16288   0.355E-02    0.256E-02
DAV:   6    -0.158555993223E+04    0.44401E-04   -0.19027E-04 16088   0.236E-02    0.126E-02
DAV:   7    -0.158555992507E+04    0.71564E-05   -0.41583E-05  9536   0.107E-02
   7 F= -.15855599E+04 E0= -.15855460E+04  d E =-.475645E-02
       N       E                     dE             d eps       ncg     rms          rms(c)
DAV:   1    -0.158556209796E+04   -0.21657E-02   -0.23750E-01 11676   0.634E-01    0.756E-02
DAV:   2    -0.158556265346E+04   -0.55550E-03   -0.40187E-03 17296   0.109E-01    0.920E-02
DAV:   3    -0.158556212017E+04    0.53329E-03   -0.16931E-03 17608   0.710E-02    0.409E-02
DAV:   4    -0.158556211175E+04    0.84243E-05   -0.27170E-04 16880   0.242E-02    0.267E-02
DAV:   5    -0.158556210152E+04    0.10225E-04   -0.13685E-04 15336   0.203E-02    0.126E-02
DAV:   6    -0.158556209931E+04    0.22078E-05   -0.51627E-05 11072   0.118E-02
   8 F= -.15855621E+04 E0= -.15855483E+04  d E =-.217424E-02
       N       E                     dE             d eps       ncg     rms          rms(c)
DAV:   1    -0.158556313388E+04   -0.10324E-02   -0.86161E-02 11753   0.391E-01    0.662E-02
DAV:   2    -0.158556322874E+04   -0.94858E-04   -0.20206E-03 18000   0.781E-02    0.660E-02
DAV:   3    -0.158556294864E+04    0.28010E-03   -0.10182E-03 18409   0.541E-02    0.310E-02
DAV:   4    -0.158556290477E+04    0.43871E-04   -0.17010E-04 15816   0.194E-02    0.200E-02
DAV:   5    -0.158556287902E+04    0.25748E-04   -0.78661E-05 13760   0.159E-02    0.118E-02
DAV:   6    -0.158556286513E+04    0.13889E-04   -0.30305E-05  8496   0.110E-02    0.506E-03
DAV:   7    -0.158556286436E+04    0.77271E-06   -0.94874E-06  6648   0.577E-03
   9 F= -.15855629E+04 E0= -.15855490E+04  d E =-.765044E-03
       N       E                     dE             d eps       ncg     rms          rms(c)
DAV:   1    -0.158556344882E+04   -0.58369E-03   -0.31424E-02 11774   0.240E-01    0.427E-02
DAV:   2    -0.158556345705E+04   -0.82337E-05   -0.46109E-04 16856   0.337E-02    0.297E-02
DAV:   3    -0.158556343263E+04    0.24426E-04   -0.19605E-04 17233   0.244E-02    0.205E-02
DAV:   4    -0.158556343176E+04    0.87298E-06   -0.58604E-05 11568   0.120E-02    0.999E-03
DAV:   5    -0.158556343986E+04   -0.81075E-05   -0.20633E-05  7864   0.914E-03
  10 F= -.15855634E+04 E0= -.15855496E+04  d E =-.575506E-03
       N       E                     dE             d eps       ncg     rms          rms(c)
DAV:   1    -0.158556392693E+04   -0.49517E-03   -0.45031E-02 11760   0.276E-01    0.334E-02
DAV:   2    -0.158556399486E+04   -0.67934E-04   -0.71960E-04 17896   0.444E-02    0.375E-02
DAV:   3    -0.158556390959E+04    0.85273E-04   -0.29146E-04 17952   0.292E-02    0.183E-02
DAV:   4    -0.158556389802E+04    0.11571E-04   -0.34584E-05  8976   0.100E-02    0.118E-02
DAV:   5    -0.158556389016E+04    0.78624E-05   -0.18514E-05  7720   0.909E-03
  11 F= -.15855639E+04 E0= -.15855501E+04  d E =-.450294E-03
       N       E                     dE             d eps       ncg     rms          rms(c)
DAV:   1    -0.158556421544E+04   -0.31742E-03   -0.44399E-02 11704   0.274E-01    0.291E-02
DAV:   2    -0.158556426983E+04   -0.54395E-04   -0.49595E-04 17456   0.331E-02    0.274E-02
DAV:   3    -0.158556424020E+04    0.29637E-04   -0.12623E-04 15676   0.203E-02    0.173E-02
DAV:   4    -0.158556424312E+04   -0.29188E-05   -0.32814E-05  8400   0.913E-03    0.725E-03
DAV:   5    -0.158556424555E+04   -0.24387E-05   -0.11600E-05  7160   0.781E-03
  12 F= -.15855642E+04 E0= -.15855505E+04  d E =-.355397E-03
       N       E                     dE             d eps       ncg     rms          rms(c)
DAV:   1    -0.158556437352E+04   -0.13041E-03   -0.41663E-03 11788   0.913E-02    0.214E-02
DAV:   2    -0.158556434259E+04    0.30932E-04   -0.89177E-05 14344   0.153E-02    0.131E-02
DAV:   3    -0.158556433154E+04    0.11054E-04   -0.38035E-05  9568   0.116E-02    0.891E-03
DAV:   4    -0.158556432081E+04    0.10726E-04   -0.11384E-05  6816   0.707E-03    0.480E-03
DAV:   5    -0.158556431396E+04    0.68458E-05   -0.58518E-06  6272   0.480E-03
  13 F= -.15855643E+04 E0= -.15855505E+04  d E =-.684104E-04
       N       E                     dE             d eps       ncg     rms          rms(c)
DAV:   1    -0.158556449315E+04   -0.17234E-03   -0.16483E-02 11760   0.167E-01    0.180E-02
DAV:   2    -0.158556451108E+04   -0.17931E-04   -0.16162E-04 16680   0.181E-02    0.150E-02
DAV:   3    -0.158556450481E+04    0.62647E-05   -0.24957E-05  8521   0.107E-02    0.107E-02
DAV:   4    -0.158556450862E+04   -0.38121E-05   -0.16164E-05  6448   0.645E-03    0.370E-03
DAV:   5    -0.158556451054E+04   -0.19198E-05   -0.57282E-06  6312   0.520E-03
  14 F= -.15855645E+04 E0= -.15855507E+04  d E =-.196580E-03
       N       E                     dE             d eps       ncg     rms          rms(c)
DAV:   1    -0.158556468167E+04   -0.17304E-03   -0.19282E-02 11732   0.180E-01    0.178E-02
DAV:   2    -0.158556469261E+04   -0.10945E-04   -0.18957E-04 17184   0.200E-02    0.162E-02
DAV:   3    -0.158556468193E+04    0.10680E-04   -0.33904E-05  9138   0.119E-02    0.110E-02
DAV:   4    -0.158556467669E+04    0.52449E-05   -0.16163E-05  6624   0.664E-03    0.490E-03
DAV:   5    -0.158556467489E+04    0.17992E-05   -0.70276E-06  6320   0.584E-03
  15 F= -.15855647E+04 E0= -.15855509E+04  d E =-.164344E-03
       N       E                     dE             d eps       ncg     rms          rms(c)
DAV:   1    -0.158556475671E+04   -0.80023E-04   -0.68956E-03 11760   0.109E-01    0.134E-02
DAV:   2    -0.158556476576E+04   -0.90489E-05   -0.62533E-05 12616   0.112E-02    0.890E-03
DAV:   3    -0.158556476734E+04   -0.15779E-05   -0.13113E-05  7105   0.670E-03    0.668E-03
DAV:   4    -0.158556477083E+04   -0.34927E-05   -0.55420E-06  6176   0.467E-03    0.319E-03
DAV:   5    -0.158556477377E+04   -0.29376E-05   -0.29134E-06  6104   0.328E-03
  16 F= -.15855648E+04 E0= -.15855510E+04  d E =-.988791E-04
       N       E                     dE             d eps       ncg     rms          rms(c)
DAV:   1    -0.158556486069E+04   -0.89863E-04   -0.45898E-03 11760   0.888E-02    0.119E-02
DAV:   2    -0.158556485222E+04    0.84728E-05   -0.41374E-05  9784   0.101E-02    0.806E-03
DAV:   3    -0.158556484917E+04    0.30516E-05   -0.12939E-05  7121   0.728E-03    0.592E-03
DAV:   4    -0.158556484447E+04    0.47024E-05   -0.54581E-06  6104   0.452E-03    0.303E-03
DAV:   5    -0.158556484187E+04    0.25974E-05   -0.30368E-06  6104   0.335E-03
  17 F= -.15855648E+04 E0= -.15855511E+04  d E =-.681014E-04
       N       E                     dE             d eps       ncg     rms          rms(c)
DAV:   1    -0.158556493098E+04   -0.86516E-04   -0.88744E-03 11732   0.122E-01    0.119E-02
DAV:   2    -0.158556493851E+04   -0.75236E-05   -0.79094E-05 14312   0.112E-02    0.913E-03
DAV:   3    -0.158556493853E+04   -0.19704E-07   -0.77979E-06  6546   0.529E-03    0.706E-03
DAV:   4    -0.158556493987E+04   -0.13404E-05   -0.57815E-06  6128   0.433E-03    0.174E-03
DAV:   5    -0.158556494022E+04   -0.35307E-06   -0.17952E-06  6104   0.306E-03
  18 F= -.15855649E+04 E0= -.15855512E+04  d E =-.983506E-04
       N       E                     dE             d eps       ncg     rms          rms(c)
DAV:   1    -0.158556502493E+04   -0.85064E-04   -0.81239E-03 11746   0.117E-01    0.117E-02
DAV:   2    -0.158556502335E+04    0.15844E-05   -0.70722E-05 13304   0.112E-02    0.878E-03
DAV:   3    -0.158556502115E+04    0.21921E-05   -0.10508E-05  6744   0.606E-03    0.677E-03
DAV:   4    -0.158556501721E+04    0.39403E-05   -0.49603E-06  6104   0.415E-03    0.309E-03
DAV:   5    -0.158556501530E+04    0.19155E-05   -0.25238E-06  6104   0.325E-03
  19 F= -.15855650E+04 E0= -.15855513E+04  d E =-.750782E-04
       N       E                     dE             d eps       ncg     rms          rms(c)
DAV:   1    -0.158556504946E+04   -0.32246E-04   -0.18414E-03 11760   0.564E-02    0.750E-03
DAV:   2    -0.158556505401E+04   -0.45521E-05   -0.13211E-05  6120   0.577E-03    0.465E-03
DAV:   3    -0.158556505591E+04   -0.19001E-05   -0.51620E-06  6097   0.408E-03    0.349E-03
DAV:   4    -0.158556505806E+04   -0.21455E-05   -0.28434E-06  6104   0.312E-03    0.168E-03
DAV:   5    -0.158556505957E+04   -0.15127E-05   -0.16203E-06  6104   0.218E-03
  20 F= -.15855651E+04 E0= -.15855513E+04  d E =-.442717E-04
       N       E                     dE             d eps       ncg     rms          rms(c)
DAV:   1    -0.158556512270E+04   -0.64646E-04   -0.53000E-03 11732   0.941E-02    0.960E-03
DAV:   2    -0.158556512100E+04    0.16992E-05   -0.39403E-05  9896   0.888E-03    0.699E-03
DAV:   3    -0.158556511995E+04    0.10547E-05   -0.93832E-06  6378   0.536E-03    0.524E-03
DAV:   4    -0.158556511726E+04    0.26843E-05   -0.48196E-06  6104   0.407E-03    0.204E-03
DAV:   5    -0.158556511651E+04    0.75316E-06   -0.25435E-06  6097   0.297E-03
  21 F= -.15855651E+04 E0= -.15855514E+04  d E =-.569419E-04
       N       E                     dE             d eps       ncg     rms          rms(c)
DAV:   1    -0.158556516397E+04   -0.46710E-04   -0.44901E-03 11746   0.866E-02    0.863E-03
DAV:   2    -0.158556516813E+04   -0.41603E-05   -0.27506E-05  8184   0.804E-03    0.610E-03
DAV:   3    -0.158556516997E+04   -0.18392E-05   -0.99657E-06  6192   0.489E-03    0.404E-03
DAV:   4    -0.158556517179E+04   -0.18162E-05   -0.55759E-06  6104   0.407E-03    0.167E-03
DAV:   5    -0.158556517256E+04   -0.76826E-06   -0.30610E-06  6104   0.299E-03
  22 F= -.15855652E+04 E0= -.15855514E+04  d E =-.560473E-04
       N       E                     dE             d eps       ncg     rms          rms(c)
DAV:   1    -0.158556521003E+04   -0.38238E-04   -0.20858E-03 11760   0.594E-02    0.735E-03
DAV:   2    -0.158556520530E+04    0.47306E-05   -0.15843E-05  6128   0.638E-03    0.471E-03
DAV:   3    -0.158556520390E+04    0.13945E-05   -0.64563E-06  6104   0.455E-03    0.348E-03
DAV:   4    -0.158556520175E+04    0.21522E-05   -0.33844E-06  6083   0.341E-03    0.181E-03
DAV:   5    -0.158556520056E+04    0.11895E-05   -0.20807E-06  6083   0.254E-03
  23 F= -.15855652E+04 E0= -.15855515E+04  d E =-.280032E-04
       N       E                     dE             d eps       ncg     rms          rms(c)
DAV:   1    -0.158556523249E+04   -0.30735E-04   -0.24043E-03 11746   0.634E-02    0.658E-03
DAV:   2    -0.158556523535E+04   -0.28658E-05   -0.15383E-05  7360   0.613E-03    0.469E-03
DAV:   3    -0.158556523648E+04   -0.11301E-05   -0.59967E-06  6209   0.394E-03    0.342E-03
DAV:   4    -0.158556523798E+04   -0.14940E-05   -0.35519E-06  6062   0.321E-03    0.124E-03
DAV:   5    -0.158556523861E+04   -0.63050E-06   -0.19672E-06  6055   0.241E-03
  24 F= -.15855652E+04 E0= -.15855515E+04  d E =-.380444E-04
       N       E                     dE             d eps       ncg     rms          rms(c)
DAV:   1    -0.158556528284E+04   -0.44862E-04   -0.45100E-03 11718   0.866E-02    0.835E-03
DAV:   2    -0.158556528207E+04    0.76931E-06   -0.30723E-05  9016   0.808E-03    0.606E-03
DAV:   3    -0.158556528104E+04    0.10280E-05   -0.90542E-06  6130   0.473E-03    0.370E-03
DAV:   4    -0.158556527974E+04    0.12972E-05   -0.48275E-06  6104   0.399E-03    0.146E-03
DAV:   5    -0.158556527960E+04    0.13816E-06   -0.26249E-06  6076   0.292E-03
  25 F= -.15855653E+04 E0= -.15855515E+04  d E =-.409984E-04
       N       E                     dE             d eps       ncg     rms          rms(c)
DAV:   1    -0.158556529737E+04   -0.17631E-04   -0.12263E-03 11760   0.457E-02    0.592E-03
DAV:   2    -0.158556530098E+04   -0.36066E-05   -0.99108E-06  6086   0.502E-03    0.374E-03
DAV:   3    -0.158556530239E+04   -0.14057E-05   -0.41398E-06  6062   0.361E-03    0.280E-03
DAV:   4    -0.158556530401E+04   -0.16192E-05   -0.21872E-06  6062   0.268E-03    0.144E-03
DAV:   5    -0.158556530521E+04   -0.12008E-05   -0.13120E-06  6062   0.201E-03
  26 F= -.15855653E+04 E0= -.15855516E+04  d E =-.256017E-04
       N       E                     dE             d eps       ncg     rms          rms(c)
DAV:   1    -0.158556533194E+04   -0.27937E-04   -0.15638E-03 11746   0.512E-02    0.562E-03
DAV:   2    -0.158556532958E+04    0.23586E-05   -0.10205E-05  6323   0.501E-03    0.382E-03
DAV:   3    -0.158556532857E+04    0.10156E-05   -0.40294E-06  6076   0.321E-03    0.258E-03
DAV:   4    -0.158556532738E+04    0.11924E-05   -0.22120E-06  6041   0.258E-03    0.133E-03
DAV:   5    -0.158556532679E+04    0.58772E-06   -0.13094E-06  6041   0.197E-03
  27 F= -.15855653E+04 E0= -.15855516E+04  d E =-.215817E-04
       N       E                     dE             d eps       ncg     rms          rms(c)
DAV:   1    -0.158556535742E+04   -0.30046E-04   -0.34786E-03 11704   0.760E-02    0.715E-03
DAV:   2    -0.158556535952E+04   -0.20988E-05   -0.20478E-05  8184   0.698E-03    0.525E-03
DAV:   3    -0.158556536037E+04   -0.85046E-06   -0.75082E-06  6203   0.422E-03    0.315E-03
DAV:   4    -0.158556536123E+04   -0.85538E-06   -0.43547E-06  6104   0.364E-03    0.959E-04
DAV:   5    -0.158556536138E+04   -0.15375E-06   -0.22785E-06  6083   0.261E-03
  28 F= -.15855654E+04 E0= -.15855516E+04  d E =-.345921E-04
       N       E                     dE             d eps       ncg     rms          rms(c)
DAV:   1    -0.158556539077E+04   -0.29548E-04   -0.27183E-03 11718   0.678E-02    0.789E-03
DAV:   2    -0.158556538585E+04    0.49262E-05   -0.19114E-05  6472   0.695E-03    0.507E-03
DAV:   3    -0.158556538410E+04    0.17476E-05   -0.75238E-06  6129   0.464E-03    0.353E-03
DAV:   4    -0.158556538208E+04    0.20172E-05   -0.39181E-06  6041   0.360E-03    0.197E-03
DAV:   5    -0.158556538088E+04    0.11980E-05   -0.23986E-06  6041   0.273E-03
  29 F= -.15855654E+04 E0= -.15855517E+04  d E =-.195051E-04
       N       E                     dE             d eps       ncg     rms          rms(c)
DAV:   1    -0.158556538613E+04   -0.40434E-05   -0.19186E-04 11584   0.194E-02    0.462E-03
DAV:   2    -0.158556538927E+04   -0.31440E-05   -0.36091E-06  6020   0.317E-03    0.249E-03
DAV:   3    -0.158556539047E+04   -0.12041E-05   -0.17809E-06  6020   0.272E-03    0.194E-03
DAV:   4    -0.158556539172E+04   -0.12506E-05   -0.83677E-07  6020   0.180E-03    0.963E-04
DAV:   5    -0.158556539287E+04   -0.11466E-05   -0.50309E-07  6020   0.122E-03
  30 F= -.15855654E+04 E0= -.15855517E+04  d E =-.119867E-04
       N       E                     dE             d eps       ncg     rms          rms(c)
DAV:   1    -0.158556541482E+04   -0.23097E-04   -0.21617E-03 11718   0.600E-02    0.562E-03
DAV:   2    -0.158556541530E+04   -0.47686E-06   -0.11896E-05  6526   0.538E-03    0.413E-03
DAV:   3    -0.158556541532E+04   -0.23893E-07   -0.44366E-06  6048   0.323E-03    0.236E-03
DAV:   4    -0.158556541529E+04    0.34313E-07   -0.25836E-06  6020   0.281E-03    0.733E-04
DAV:   5    -0.158556541537E+04   -0.81947E-07   -0.13349E-06  6020   0.196E-03
  31 F= -.15855654E+04 E0= -.15855517E+04  d E =-.224988E-04
       N       E                     dE             d eps       ncg     rms          rms(c)
DAV:   1    -0.158556550032E+04   -0.85030E-04   -0.95686E-02 11620   0.399E-01    0.362E-02
DAV:   2    -0.158556554727E+04   -0.46952E-04   -0.79355E-04 17152   0.347E-02    0.279E-02
DAV:   3    -0.158556553158E+04    0.15692E-04   -0.69149E-05 12474   0.128E-02    0.141E-02
DAV:   4    -0.158556552607E+04    0.55092E-05   -0.33569E-05  9056   0.116E-02    0.646E-03
DAV:   5    -0.158556552357E+04    0.24970E-05   -0.95563E-06  7065   0.733E-03
  32 F= -.15855655E+04 E0= -.15855518E+04  d E =-.108202E-03
       N       E                     dE             d eps       ncg     rms          rms(c)
DAV:   1    -0.158556554154E+04   -0.15473E-04   -0.19190E-02 11648   0.179E-01    0.156E-02
DAV:   2    -0.158556555349E+04   -0.11952E-04   -0.16612E-04 16504   0.157E-02    0.123E-02
DAV:   3    -0.158556555198E+04    0.15173E-05   -0.90877E-06  6867   0.569E-03    0.907E-03
DAV:   4    -0.158556555037E+04    0.16100E-05   -0.92885E-06  6424   0.578E-03    0.288E-03
DAV:   5    -0.158556555008E+04    0.29159E-06   -0.28859E-06  6216   0.413E-03
  33 F= -.15855656E+04 E0= -.15855519E+04  d E =-.265035E-04
       N       E                     dE             d eps       ncg     rms          rms(c)
DAV:   1    -0.158556555367E+04   -0.33067E-05   -0.34372E-02 11620   0.239E-01    0.213E-02
DAV:   2    -0.158556557174E+04   -0.18064E-04   -0.28784E-04 17112   0.210E-02    0.165E-02
DAV:   3    -0.158556556767E+04    0.40714E-05   -0.15883E-05  7755   0.766E-03    0.114E-02
DAV:   4    -0.158556556417E+04    0.34991E-05   -0.15158E-05  7256   0.785E-03    0.366E-03
DAV:   5    -0.158556556353E+04    0.63963E-06   -0.47561E-06  6250   0.532E-03
  34 F= -.15855656E+04 E0= -.15855519E+04  d E =-.134516E-04
