       N       E                     dE             d eps       ncg     rms          rms(c)
DAV:   1     0.219364848331E+04    0.21936E+04   -0.29004E+05 11620   0.143E+03
DAV:   2    -0.119897918260E+04   -0.33926E+04   -0.32568E+04 13502   0.295E+02
DAV:   3    -0.162617681803E+04   -0.42720E+03   -0.39420E+03 18016   0.816E+01
DAV:   4    -0.165064528503E+04   -0.24468E+02   -0.22800E+02 16312   0.171E+01
DAV:   5    -0.165170770575E+04   -0.10624E+01   -0.10431E+01 17784   0.418E+00    0.415E+01
DAV:   6    -0.161637775258E+04    0.35330E+02   -0.18316E+02 18800   0.200E+01    0.255E+01
DAV:   7    -0.159716242415E+04    0.19215E+02   -0.11952E+02 19208   0.182E+01    0.191E+01
DAV:   8    -0.158569320915E+04    0.11469E+02   -0.80705E+01 16632   0.116E+01    0.105E+01
DAV:   9    -0.158025503070E+04    0.54382E+01   -0.27272E+01 16616   0.838E+00    0.348E+00
DAV:  10    -0.157998947690E+04    0.26555E+00   -0.51554E+00 16040   0.357E+00    0.193E+00
DAV:  11    -0.157997592037E+04    0.13557E-01   -0.12365E+00 16328   0.156E+00    0.136E+00
DAV:  12    -0.157994306195E+04    0.32858E-01   -0.26398E-01 14032   0.768E-01    0.714E-01
DAV:  13    -0.157993372975E+04    0.93322E-02   -0.89360E-02 16440   0.542E-01    0.446E-01
DAV:  14    -0.157992528595E+04    0.84438E-02   -0.38749E-02 16536   0.336E-01    0.203E-01
DAV:  15    -0.157992413873E+04    0.11472E-02   -0.11301E-02 15288   0.146E-01    0.882E-02
DAV:  16    -0.157992413934E+04   -0.61176E-06   -0.23916E-03 16792   0.792E-02    0.636E-02
DAV:  17    -0.157992407236E+04    0.66983E-04   -0.85370E-04 16104   0.464E-02    0.358E-02
DAV:  18    -0.157992405437E+04    0.17992E-04   -0.29500E-04 15240   0.256E-02    0.155E-02
DAV:  19    -0.157992405100E+04    0.33657E-05   -0.66457E-05 11832   0.128E-02
   1 F= -.15799241E+04 E0= -.15799304E+04  d E =-.157992E+04
       N       E                     dE             d eps       ncg     rms          rms(c)
DAV:   1    -0.158419058256E+04   -0.42665E+01   -0.15086E+03 11620   0.589E+01    0.212E+01
DAV:   2    -0.157014882496E+04    0.14042E+02   -0.97071E+01 18336   0.145E+01    0.139E+01
DAV:   3    -0.156267404038E+04    0.74748E+01   -0.61800E+01 19312   0.119E+01    0.978E+00
DAV:   4    -0.155836872677E+04    0.43053E+01   -0.23509E+01 20192   0.673E+00    0.597E+00
DAV:   5    -0.155687403806E+04    0.14947E+01   -0.12530E+01 16880   0.458E+00    0.240E+00
DAV:   6    -0.155671333064E+04    0.16071E+00   -0.23042E+00 16856   0.224E+00    0.149E+00
DAV:   7    -0.155666561351E+04    0.47717E-01   -0.45977E-01 15760   0.105E+00    0.100E+00
DAV:   8    -0.155665526056E+04    0.10353E-01   -0.15316E-01 17488   0.475E-01    0.544E-01
DAV:   9    -0.155665967771E+04   -0.44171E-02   -0.85159E-02 17888   0.319E-01    0.309E-01
DAV:  10    -0.155666082536E+04   -0.11476E-02   -0.22932E-02 16816   0.243E-01    0.256E-01
DAV:  11    -0.155665831648E+04    0.25089E-02   -0.99478E-03 17376   0.149E-01    0.114E-01
DAV:  12    -0.155665833136E+04   -0.14875E-04   -0.45174E-03 18080   0.775E-02    0.572E-02
DAV:  13    -0.155665849515E+04   -0.16380E-03   -0.82220E-04 17216   0.386E-02    0.393E-02
DAV:  14    -0.155665853899E+04   -0.43836E-04   -0.39301E-04 16592   0.292E-02    0.237E-02
DAV:  15    -0.155665853918E+04   -0.19218E-06   -0.13925E-04 14688   0.167E-02    0.129E-02
DAV:  16    -0.155665853902E+04    0.16712E-06   -0.35053E-05  7888   0.947E-03
   2 F= -.15566585E+04 E0= -.15566638E+04  d E =0.232655E+02
       N       E                     dE             d eps       ncg     rms          rms(c)
DAV:   1    -0.159872562421E+04   -0.42067E+02   -0.71887E+02 11620   0.448E+01    0.149E+01
DAV:   2    -0.158984643243E+04    0.88792E+01   -0.27753E+01 17104   0.887E+00    0.776E+00
DAV:   3    -0.158817860913E+04    0.16678E+01   -0.18145E+01 18360   0.681E+00    0.643E+00
DAV:   4    -0.158601431040E+04    0.21643E+01   -0.80229E+00 17240   0.440E+00    0.306E+00
DAV:   5    -0.158560295715E+04    0.41135E+00   -0.36021E+00 15792   0.285E+00    0.113E+00
DAV:   6    -0.158558238172E+04    0.20575E-01   -0.62361E-01 15192   0.130E+00    0.757E-01
DAV:   7    -0.158557708960E+04    0.52921E-02   -0.11851E-01 15040   0.542E-01    0.530E-01
DAV:   8    -0.158558038145E+04   -0.32918E-02   -0.39508E-02 15600   0.258E-01    0.261E-01
DAV:   9    -0.158558840981E+04   -0.80284E-02   -0.26644E-02 16512   0.209E-01    0.209E-01
DAV:  10    -0.158558795100E+04    0.45882E-03   -0.66925E-03 15904   0.150E-01    0.142E-01
DAV:  11    -0.158558727722E+04    0.67378E-03   -0.41979E-03 16848   0.863E-02    0.487E-02
DAV:  12    -0.158558753152E+04   -0.25430E-03   -0.99751E-04 16616   0.427E-02    0.391E-02
DAV:  13    -0.158558766025E+04   -0.12873E-03   -0.27333E-04 15400   0.273E-02    0.238E-02
DAV:  14    -0.158558767972E+04   -0.19469E-04   -0.12711E-04 14032   0.157E-02    0.734E-03
DAV:  15    -0.158558767948E+04    0.23527E-06   -0.23721E-05  7296   0.738E-03
   3 F= -.15855877E+04 E0= -.15855799E+04  d E =-.289291E+02
       N       E                     dE             d eps       ncg     rms          rms(c)
DAV:   1    -0.158576321044E+04   -0.17553E+00   -0.19376E+01 11620   0.578E+00    0.753E-01
DAV:   2    -0.158579493661E+04   -0.31726E-01   -0.34915E-01 17000   0.943E-01    0.772E-01
DAV:   3    -0.158575904696E+04    0.35890E-01   -0.13314E-01 17544   0.613E-01    0.380E-01
DAV:   4    -0.158575557240E+04    0.34746E-02   -0.23357E-02 16008   0.219E-01    0.221E-01
DAV:   5    -0.158575444126E+04    0.11311E-02   -0.10809E-02 15632   0.163E-01    0.107E-01
DAV:   6    -0.158575411385E+04    0.32741E-03   -0.37553E-03 16496   0.107E-01    0.614E-02
DAV:   7    -0.158575400244E+04    0.11141E-03   -0.99737E-04 16224   0.513E-02    0.359E-02
DAV:   8    -0.158575397875E+04    0.23688E-04   -0.26281E-04 15992   0.232E-02    0.215E-02
DAV:   9    -0.158575397738E+04    0.13658E-05   -0.87725E-05 14160   0.154E-02
   4 F= -.15857540E+04 E0= -.15857467E+04  d E =-.166298E+00
       N       E                     dE             d eps       ncg     rms          rms(c)
DAV:   1    -0.158579908054E+04   -0.45102E-01   -0.50107E+00 11620   0.292E+00    0.434E-01
DAV:   2    -0.158581898316E+04   -0.19903E-01   -0.13982E-01 17600   0.676E-01    0.576E-01
DAV:   3    -0.158579360862E+04    0.25375E-01   -0.72881E-02 17464   0.457E-01    0.195E-01
DAV:   4    -0.158579273589E+04    0.87272E-03   -0.78133E-03 16512   0.124E-01    0.129E-01
DAV:   5    -0.158579227238E+04    0.46351E-03   -0.32590E-03 15904   0.917E-02    0.731E-02
DAV:   6    -0.158579206017E+04    0.21221E-03   -0.14952E-03 15832   0.659E-02    0.395E-02
DAV:   7    -0.158579200653E+04    0.53635E-04   -0.39286E-04 15144   0.322E-02    0.223E-02
DAV:   8    -0.158579200780E+04   -0.12698E-05   -0.93239E-05 13848   0.141E-02
   5 F= -.15857920E+04 E0= -.15857843E+04  d E =-.380304E-01
       N       E                     dE             d eps       ncg     rms          rms(c)
DAV:   1    -0.158580597461E+04   -0.13968E-01   -0.90089E-01 11704   0.133E+00    0.280E-01
DAV:   2    -0.158580401940E+04    0.19552E-02   -0.14583E-02 15840   0.187E-01    0.175E-01
DAV:   3    -0.158580314728E+04    0.87212E-03   -0.72136E-03 17616   0.140E-01    0.129E-01
DAV:   4    -0.158580240924E+04    0.73804E-03   -0.26303E-03 15688   0.803E-02    0.581E-02
DAV:   5    -0.158580237133E+04    0.37917E-04   -0.10950E-03 15248   0.534E-02    0.265E-02
DAV:   6    -0.158580235899E+04    0.12332E-04   -0.24517E-04 15504   0.272E-02    0.169E-02
DAV:   7    -0.158580235423E+04    0.47666E-05   -0.51346E-05 10696   0.124E-02
   6 F= -.15858024E+04 E0= -.15857950E+04  d E =-.103464E-01
       N       E                     dE             d eps       ncg     rms          rms(c)
DAV:   1    -0.158581589039E+04   -0.13531E-01   -0.81851E-01 11620   0.121E+00    0.225E-01
DAV:   2    -0.158581902768E+04   -0.31373E-02   -0.27653E-02 18096   0.303E-01    0.266E-01
DAV:   3    -0.158581372416E+04    0.53035E-02   -0.15990E-02 17976   0.211E-01    0.961E-02
DAV:   4    -0.158581338376E+04    0.34040E-03   -0.18232E-03 15992   0.609E-02    0.570E-02
DAV:   5    -0.158581325108E+04    0.13268E-03   -0.77402E-04 16072   0.461E-02    0.333E-02
DAV:   6    -0.158581318601E+04    0.65065E-04   -0.31986E-04 16088   0.310E-02    0.169E-02
DAV:   7    -0.158581317709E+04    0.89220E-05   -0.76253E-05 13328   0.142E-02
   7 F= -.15858132E+04 E0= -.15858055E+04  d E =-.108229E-01
       N       E                     dE             d eps       ncg     rms          rms(c)
DAV:   1    -0.158581821732E+04   -0.50313E-02   -0.55296E-01 11662   0.964E-01    0.119E-01
DAV:   2    -0.158582005442E+04   -0.18371E-02   -0.10948E-02 16968   0.188E-01    0.165E-01
DAV:   3    -0.158581806281E+04    0.19916E-02   -0.53033E-03 16952   0.126E-01    0.604E-02
DAV:   4    -0.158581802473E+04    0.38078E-04   -0.71303E-04 15824   0.375E-02    0.316E-02
DAV:   5    -0.158581801160E+04    0.13133E-04   -0.24906E-04 15800   0.265E-02    0.161E-02
DAV:   6    -0.158581800398E+04    0.76127E-05   -0.85311E-05 14104   0.163E-02
   8 F= -.15858180E+04 E0= -.15858104E+04  d E =-.482689E-02
       N       E                     dE             d eps       ncg     rms          rms(c)
DAV:   1    -0.158582026827E+04   -0.22567E-02   -0.17269E-01 11760   0.558E-01    0.106E-01
DAV:   2    -0.158582077104E+04   -0.50276E-03   -0.54794E-03 18136   0.135E-01    0.119E-01
DAV:   3    -0.158581973678E+04    0.10343E-02   -0.32069E-03 18184   0.945E-02    0.456E-02
DAV:   4    -0.158581963816E+04    0.98619E-04   -0.39809E-04 15784   0.284E-02    0.260E-02
DAV:   5    -0.158581959771E+04    0.40456E-04   -0.16786E-04 15760   0.217E-02    0.156E-02
DAV:   6    -0.158581957769E+04    0.20020E-04   -0.63724E-05 13248   0.145E-02    0.722E-03
DAV:   7    -0.158581957634E+04    0.13476E-05   -0.13913E-05  6856   0.679E-03
   9 F= -.15858196E+04 E0= -.15858118E+04  d E =-.157236E-02
       N       E                     dE             d eps       ncg     rms          rms(c)
DAV:   1    -0.158582099337E+04   -0.14157E-02   -0.79168E-02 11732   0.380E-01    0.656E-02
DAV:   2    -0.158582103094E+04   -0.37571E-04   -0.12076E-03 16160   0.568E-02    0.517E-02
DAV:   3    -0.158582091158E+04    0.11936E-03   -0.56406E-04 17074   0.402E-02    0.312E-02
DAV:   4    -0.158582089995E+04    0.11631E-04   -0.14386E-04 14848   0.180E-02    0.147E-02
DAV:   5    -0.158582091040E+04   -0.10456E-04   -0.52717E-05 11240   0.129E-02    0.715E-03
DAV:   6    -0.158582091115E+04   -0.74735E-06   -0.14050E-05  7232   0.815E-03
  10 F= -.15858209E+04 E0= -.15858132E+04  d E =-.133481E-02
       N       E                     dE             d eps       ncg     rms          rms(c)
DAV:   1    -0.158582190008E+04   -0.98968E-03   -0.91759E-02 11648   0.393E-01    0.520E-02
DAV:   2    -0.158582219460E+04   -0.29452E-03   -0.20166E-03 17536   0.806E-02    0.705E-02
DAV:   3    -0.158582182406E+04    0.37054E-03   -0.10404E-03 17370   0.545E-02    0.254E-02
DAV:   4    -0.158582180303E+04    0.21031E-04   -0.11056E-04 14312   0.150E-02    0.154E-02
DAV:   5    -0.158582179092E+04    0.12109E-04   -0.36693E-05  9112   0.119E-02    0.810E-03
DAV:   6    -0.158582178542E+04    0.55032E-05   -0.14005E-05  7408   0.853E-03
  11 F= -.15858218E+04 E0= -.15858141E+04  d E =-.874268E-03
       N       E                     dE             d eps       ncg     rms          rms(c)
DAV:   1    -0.158582228952E+04   -0.49860E-03   -0.59731E-02 11739   0.319E-01    0.389E-02
DAV:   2    -0.158582239383E+04   -0.10431E-03   -0.81480E-04 16872   0.469E-02    0.409E-02
DAV:   3    -0.158582230021E+04    0.93617E-04   -0.33060E-04 17089   0.308E-02    0.209E-02
DAV:   4    -0.158582230309E+04   -0.28711E-05   -0.59209E-05 12000   0.114E-02    0.951E-03
DAV:   5    -0.158582230767E+04   -0.45858E-05   -0.17246E-05  7592   0.868E-03
  12 F= -.15858223E+04 E0= -.15858146E+04  d E =-.522253E-03
       N       E                     dE             d eps       ncg     rms          rms(c)
DAV:   1    -0.158582258083E+04   -0.27774E-03   -0.99555E-03 11802   0.138E-01    0.307E-02
DAV:   2    -0.158582255581E+04    0.25019E-04   -0.27977E-04 18208   0.286E-02    0.254E-02
DAV:   3    -0.158582251312E+04    0.42688E-04   -0.15421E-04 16624   0.210E-02    0.134E-02
DAV:   4    -0.158582249469E+04    0.18431E-04   -0.25489E-05  7680   0.840E-03    0.672E-03
DAV:   5    -0.158582248461E+04    0.10079E-04   -0.11571E-05  6408   0.622E-03    0.312E-03
DAV:   6    -0.158582248261E+04    0.19990E-05   -0.39312E-06  6320   0.439E-03
  13 F= -.15858225E+04 E0= -.15858148E+04  d E =-.174943E-03
       N       E                     dE             d eps       ncg     rms          rms(c)
DAV:   1    -0.158582274491E+04   -0.26030E-03   -0.25564E-02 11704   0.208E-01    0.226E-02
DAV:   2    -0.158582278666E+04   -0.41750E-04   -0.30864E-04 17408   0.275E-02    0.240E-02
DAV:   3    -0.158582275667E+04    0.29989E-04   -0.10064E-04 14401   0.176E-02    0.132E-02
DAV:   4    -0.158582276000E+04   -0.33279E-05   -0.21711E-05  7048   0.749E-03    0.460E-03
DAV:   5    -0.158582276201E+04   -0.20053E-05   -0.68548E-06  6504   0.567E-03
  14 F= -.15858228E+04 E0= -.15858150E+04  d E =-.279393E-03
       N       E                     dE             d eps       ncg     rms          rms(c)
DAV:   1    -0.158582297338E+04   -0.21338E-03   -0.22988E-02 11732   0.197E-01    0.225E-02
DAV:   2    -0.158582300005E+04   -0.26662E-04   -0.32165E-04 18056   0.290E-02    0.248E-02
DAV:   3    -0.158582296150E+04    0.38548E-04   -0.12400E-04 15896   0.193E-02    0.124E-02
DAV:   4    -0.158582295299E+04    0.85085E-05   -0.17443E-05  7104   0.675E-03    0.647E-03
DAV:   5    -0.158582294873E+04    0.42652E-05   -0.78300E-06  6448   0.577E-03
  15 F= -.15858229E+04 E0= -.15858152E+04  d E =-.186717E-03
       N       E                     dE             d eps       ncg     rms          rms(c)
DAV:   1    -0.158582301808E+04   -0.65092E-04   -0.40045E-03 11802   0.854E-02    0.143E-02
DAV:   2    -0.158582302392E+04   -0.58328E-05   -0.32471E-05  8176   0.924E-03    0.801E-03
DAV:   3    -0.158582302859E+04   -0.46718E-05   -0.12540E-05  6665   0.666E-03    0.537E-03
DAV:   4    -0.158582303197E+04   -0.33809E-05   -0.62195E-06  6224   0.530E-03    0.257E-03
DAV:   5    -0.158582303469E+04   -0.27268E-05   -0.34466E-06  6104   0.332E-03
  16 F= -.15858230E+04 E0= -.15858153E+04  d E =-.859693E-04
       N       E                     dE             d eps       ncg     rms          rms(c)
DAV:   1    -0.158582315427E+04   -0.12230E-03   -0.92729E-03 11732   0.125E-01    0.151E-02
DAV:   2    -0.158582315646E+04   -0.21990E-05   -0.11780E-04 15784   0.168E-02    0.139E-02
DAV:   3    -0.158582314499E+04    0.11470E-04   -0.31391E-05  8961   0.111E-02    0.830E-03
DAV:   4    -0.158582314007E+04    0.49244E-05   -0.11977E-05  6152   0.550E-03    0.427E-03
DAV:   5    -0.158582313724E+04    0.28250E-05   -0.52259E-06  6104   0.463E-03
  17 F= -.15858231E+04 E0= -.15858154E+04  d E =-.102550E-03
       N       E                     dE             d eps       ncg     rms          rms(c)
DAV:   1    -0.158582322681E+04   -0.86741E-04   -0.91300E-03 11732   0.124E-01    0.122E-02
DAV:   2    -0.158582323649E+04   -0.96785E-05   -0.78660E-05 13712   0.132E-02    0.106E-02
DAV:   3    -0.158582323378E+04    0.27045E-05   -0.16402E-05  7489   0.753E-03    0.757E-03
DAV:   4    -0.158582323624E+04   -0.24511E-05   -0.95734E-06  6104   0.451E-03    0.197E-03
DAV:   5    -0.158582323688E+04   -0.64910E-06   -0.30617E-06  6104   0.347E-03
  18 F= -.15858232E+04 E0= -.15858155E+04  d E =-.996403E-04
       N       E                     dE             d eps       ncg     rms          rms(c)
DAV:   1    -0.158582332013E+04   -0.83892E-04   -0.79991E-03 11718   0.116E-01    0.134E-02
DAV:   2    -0.158582331797E+04    0.21545E-05   -0.84588E-05 14248   0.138E-02    0.112E-02
DAV:   3    -0.158582331150E+04    0.64768E-05   -0.20516E-05  7962   0.903E-03    0.737E-03
DAV:   4    -0.158582330659E+04    0.49082E-05   -0.86301E-06  6128   0.471E-03    0.364E-03
DAV:   5    -0.158582330368E+04    0.29054E-05   -0.39040E-06  6104   0.382E-03
  19 F= -.15858233E+04 E0= -.15858156E+04  d E =-.667979E-04
       N       E                     dE             d eps       ncg     rms          rms(c)
DAV:   1    -0.158582333263E+04   -0.26041E-04   -0.13215E-03 11816   0.488E-02    0.799E-03
DAV:   2    -0.158582333736E+04   -0.47344E-05   -0.10913E-05  6112   0.543E-03    0.464E-03
DAV:   3    -0.158582333975E+04   -0.23884E-05   -0.45185E-06  6104   0.421E-03    0.341E-03
DAV:   4    -0.158582334209E+04   -0.23391E-05   -0.24619E-06  6104   0.325E-03    0.150E-03
DAV:   5    -0.158582334374E+04   -0.16484E-05   -0.13766E-06  6104   0.206E-03
  20 F= -.15858233E+04 E0= -.15858156E+04  d E =-.400567E-04
       N       E                     dE             d eps       ncg     rms          rms(c)
DAV:   1    -0.158582340398E+04   -0.61886E-04   -0.57019E-03 11704   0.976E-02    0.977E-03
DAV:   2    -0.158582340408E+04   -0.10582E-06   -0.44490E-05 10544   0.976E-03    0.769E-03
DAV:   3    -0.158582340283E+04    0.12517E-05   -0.10017E-05  6634   0.590E-03    0.585E-03
DAV:   4    -0.158582340013E+04    0.27051E-05   -0.53227E-06  6104   0.375E-03    0.179E-03
DAV:   5    -0.158582339969E+04    0.43880E-06   -0.22772E-06  6097   0.282E-03
  21 F= -.15858234E+04 E0= -.15858157E+04  d E =-.559482E-04
       N       E                     dE             d eps       ncg     rms          rms(c)
DAV:   1    -0.158582344859E+04   -0.48460E-04   -0.61607E-03 11704   0.102E-01    0.101E-02
DAV:   2    -0.158582345514E+04   -0.65573E-05   -0.51079E-05 11408   0.934E-03    0.743E-03
DAV:   3    -0.158582345660E+04   -0.14557E-05   -0.83434E-06  6313   0.508E-03    0.510E-03
DAV:   4    -0.158582345864E+04   -0.20450E-05   -0.37583E-06  6104   0.384E-03    0.179E-03
DAV:   5    -0.158582345952E+04   -0.87207E-06   -0.17239E-06  6104   0.262E-03
  22 F= -.15858235E+04 E0= -.15858157E+04  d E =-.598285E-04
       N       E                     dE             d eps       ncg     rms          rms(c)
DAV:   1    -0.158582348019E+04   -0.21547E-04   -0.49461E-04 11816   0.303E-02    0.597E-03
DAV:   2    -0.158582347444E+04    0.57518E-05   -0.62060E-06  6104   0.459E-03    0.359E-03
DAV:   3    -0.158582347295E+04    0.14897E-05   -0.28090E-06  6104   0.397E-03    0.256E-03
DAV:   4    -0.158582347032E+04    0.26243E-05   -0.12772E-06  6104   0.220E-03    0.112E-03
DAV:   5    -0.158582346905E+04    0.12719E-05   -0.70878E-07  6104   0.149E-03
  23 F= -.15858235E+04 E0= -.15858157E+04  d E =-.953677E-05
       N       E                     dE             d eps       ncg     rms          rms(c)
DAV:   1    -0.158582350478E+04   -0.34451E-04   -0.36000E-03 11718   0.775E-02    0.748E-03
DAV:   2    -0.158582350695E+04   -0.21753E-05   -0.19844E-05  7784   0.697E-03    0.546E-03
DAV:   3    -0.158582350791E+04   -0.96114E-06   -0.72110E-06  6161   0.419E-03    0.332E-03
DAV:   4    -0.158582350890E+04   -0.98983E-06   -0.42391E-06  6104   0.366E-03    0.945E-04
DAV:   5    -0.158582350908E+04   -0.17393E-06   -0.21516E-06  6104   0.254E-03
  24 F= -.15858235E+04 E0= -.15858158E+04  d E =-.400236E-04
       N       E                     dE             d eps       ncg     rms          rms(c)
DAV:   1    -0.158582355926E+04   -0.50360E-04   -0.79161E-03 11704   0.115E-01    0.115E-02
DAV:   2    -0.158582355912E+04    0.14589E-06   -0.74164E-05 13696   0.111E-02    0.867E-03
DAV:   3    -0.158582355725E+04    0.18715E-05   -0.86448E-06  6649   0.560E-03    0.671E-03
DAV:   4    -0.158582355351E+04    0.37390E-05   -0.46150E-06  6104   0.395E-03    0.261E-03
DAV:   5    -0.158582355206E+04    0.14472E-05   -0.20861E-06  6104   0.279E-03
  25 F= -.15858236E+04 E0= -.15858158E+04  d E =-.429828E-04
       N       E                     dE             d eps       ncg     rms          rms(c)
DAV:   1    -0.158582354097E+04    0.12541E-04   -0.51726E-04 11746   0.308E-02    0.559E-03
DAV:   2    -0.158582354444E+04   -0.34734E-05   -0.41932E-06  6104   0.374E-03    0.323E-03
DAV:   3    -0.158582354548E+04   -0.10364E-05   -0.15872E-06  6069   0.297E-03    0.250E-03
DAV:   4    -0.158582354740E+04   -0.19233E-05   -0.78616E-07  6104   0.183E-03    0.100E-03
DAV:   5    -0.158582354858E+04   -0.11845E-05   -0.41420E-07  6104   0.112E-03
  26 F= -.15858235E+04 E0= -.15858158E+04  d E =0.347636E-05
       N       E                     dE             d eps       ncg     rms          rms(c)
DAV:   1    -0.158582357980E+04   -0.32398E-04   -0.35404E-03 11704   0.769E-02    0.686E-03
DAV:   2    -0.158582358035E+04   -0.55059E-06   -0.17442E-05  6208   0.662E-03    0.506E-03
DAV:   3    -0.158582358018E+04    0.16630E-06   -0.58725E-06  6090   0.367E-03    0.268E-03
DAV:   4    -0.158582358006E+04    0.12140E-06   -0.31891E-06  6104   0.320E-03    0.913E-04
DAV:   5    -0.158582358016E+04   -0.10272E-06   -0.15955E-06  6097   0.217E-03
  27 F= -.15858236E+04 E0= -.15858158E+04  d E =-.315791E-04
       N       E                     dE             d eps       ncg     rms          rms(c)
DAV:   1    -0.158582366831E+04   -0.88252E-04   -0.69706E-02 11634   0.341E-01    0.310E-02
DAV:   2    -0.158582370301E+04   -0.34698E-04   -0.58265E-04 17072   0.299E-02    0.239E-02
DAV:   3    -0.158582369153E+04    0.11482E-04   -0.45640E-05 10705   0.110E-02    0.124E-02
DAV:   4    -0.158582368723E+04    0.43005E-05   -0.24192E-05  8384   0.105E-02    0.539E-03
DAV:   5    -0.158582368550E+04    0.17269E-05   -0.71500E-06  6689   0.643E-03
  28 F= -.15858237E+04 E0= -.15858159E+04  d E =-.105339E-03
       N       E                     dE             d eps       ncg     rms          rms(c)
DAV:   1    -0.158582371366E+04   -0.26428E-04   -0.26110E-02 11662   0.209E-01    0.184E-02
DAV:   2    -0.158582372875E+04   -0.15092E-04   -0.22408E-04 16816   0.184E-02    0.144E-02
DAV:   3    -0.158582372614E+04    0.26073E-05   -0.12168E-05  7323   0.674E-03    0.101E-02
DAV:   4    -0.158582372350E+04    0.26416E-05   -0.11786E-05  6752   0.672E-03    0.313E-03
DAV:   5    -0.158582372310E+04    0.39493E-06   -0.35688E-06  6176   0.441E-03
  29 F= -.15858237E+04 E0= -.15858160E+04  d E =-.376034E-04
       N       E                     dE             d eps       ncg     rms          rms(c)
DAV:   1    -0.158582372935E+04   -0.58508E-05   -0.35216E-02 11634   0.242E-01    0.215E-02
DAV:   2    -0.158582374891E+04   -0.19561E-04   -0.29527E-04 17072   0.213E-02    0.167E-02
DAV:   3    -0.158582374470E+04    0.42149E-05   -0.16866E-05  7729   0.777E-03    0.105E-02
DAV:   4    -0.158582374235E+04    0.23480E-05   -0.14503E-05  7256   0.808E-03    0.374E-03
DAV:   5    -0.158582374171E+04    0.63427E-06   -0.46228E-06  6257   0.534E-03
  30 F= -.15858237E+04 E0= -.15858160E+04  d E =-.186093E-04
       N       E                     dE             d eps       ncg     rms          rms(c)
DAV:   1    -0.158582374258E+04   -0.23586E-06   -0.38555E-05  9928   0.851E-03    0.174E-03
DAV:   2    -0.158582374164E+04    0.93995E-06   -0.17889E-06  6104   0.261E-03    0.151E-03
DAV:   3    -0.158582374135E+04    0.29231E-06   -0.67560E-07  6104   0.197E-03    0.740E-04
DAV:   4    -0.158582374082E+04    0.53485E-06   -0.33778E-07  6104   0.904E-04    0.395E-04
DAV:   5    -0.158582374058E+04    0.23899E-06   -0.16857E-07  6104   0.807E-04
  31 F= -.15858237E+04 E0= -.15858160E+04  d E =0.113598E-05
       N       E                     dE             d eps       ncg     rms          rms(c)
DAV:   1    -0.158582373990E+04    0.91712E-06   -0.24842E-05  6736   0.679E-03    0.899E-04
DAV:   2    -0.158582374058E+04   -0.68045E-06   -0.14191E-06  6104   0.213E-03    0.541E-04
DAV:   3    -0.158582374075E+04   -0.17041E-06   -0.25718E-07  6104   0.878E-04    0.496E-04
DAV:   4    -0.158582374105E+04   -0.29636E-06   -0.96135E-08  6104   0.587E-04    0.247E-04
DAV:   5    -0.158582374125E+04   -0.20074E-06   -0.51661E-08  6104   0.359E-04
  32 F= -.15858237E+04 E0= -.15858160E+04  d E =-.669822E-06
       N       E                     dE             d eps       ncg     rms          rms(c)
DAV:   1    -0.158582374158E+04   -0.53600E-06   -0.30110E-05  8176   0.726E-03    0.728E-04
DAV:   2    -0.158582374156E+04    0.22580E-07   -0.12346E-06  6104   0.178E-03    0.460E-04
DAV:   3    -0.158582374153E+04    0.34270E-07   -0.23030E-07  6104   0.678E-04    0.405E-04
DAV:   4    -0.158582374144E+04    0.82928E-07   -0.85559E-08  6104   0.464E-04    0.163E-04
DAV:   5    -0.158582374140E+04    0.40394E-07   -0.43690E-08  6104   0.310E-04
  33 F= -.15858237E+04 E0= -.15858160E+04  d E =-.155090E-06
