       N       E                     dE             d eps       ncg     rms          rms(c)
DAV:   1     0.244472747541E+04    0.24447E+04   -0.30262E+05 12056   0.144E+03
DAV:   2    -0.119760954700E+04   -0.36423E+04   -0.34887E+04 13892   0.321E+02
DAV:   3    -0.166798052906E+04   -0.47037E+03   -0.44136E+03 18464   0.823E+01
DAV:   4    -0.169310474086E+04   -0.25124E+02   -0.23911E+02 16936   0.180E+01
DAV:   5    -0.169415373585E+04   -0.10490E+01   -0.10322E+01 18744   0.397E+00    0.439E+01
DAV:   6    -0.164987947713E+04    0.44274E+02   -0.18634E+02 18840   0.204E+01    0.254E+01
DAV:   7    -0.163117206672E+04    0.18707E+02   -0.11352E+02 19432   0.183E+01    0.184E+01
DAV:   8    -0.161847005511E+04    0.12702E+02   -0.67700E+01 17136   0.119E+01    0.747E+00
DAV:   9    -0.161569738071E+04    0.27727E+01   -0.20196E+01 17000   0.744E+00    0.252E+00
DAV:  10    -0.161566940903E+04    0.27972E-01   -0.38554E+00 17184   0.305E+00    0.164E+00
DAV:  11    -0.161563684610E+04    0.32563E-01   -0.66110E-01 15696   0.122E+00    0.110E+00
DAV:  12    -0.161560119712E+04    0.35649E-01   -0.18209E-01 14096   0.636E-01    0.482E-01
DAV:  13    -0.161559569439E+04    0.55027E-02   -0.40367E-02 16752   0.339E-01    0.234E-01
DAV:  14    -0.161559399355E+04    0.17008E-02   -0.12860E-02 16960   0.202E-01    0.117E-01
DAV:  15    -0.161559386618E+04    0.12737E-03   -0.42900E-03 15448   0.956E-02    0.581E-02
DAV:  16    -0.161559390059E+04   -0.34413E-04   -0.82409E-04 15536   0.473E-02    0.325E-02
DAV:  17    -0.161559390125E+04   -0.66298E-06   -0.28642E-04 15672   0.300E-02    0.178E-02
DAV:  18    -0.161559389807E+04    0.31821E-05   -0.82094E-05 14144   0.152E-02
   1 F= -.16155939E+04 E0= -.16155944E+04  d E =-.161559E+04
       N       E                     dE             d eps       ncg     rms          rms(c)
DAV:   1    -0.161733483670E+04   -0.17409E+01   -0.65344E+02 12040   0.371E+01    0.122E+01
DAV:   2    -0.161158400346E+04    0.57508E+01   -0.26628E+01 16984   0.773E+00    0.679E+00
DAV:   3    -0.160953312708E+04    0.20509E+01   -0.14875E+01 18576   0.621E+00    0.477E+00
DAV:   4    -0.160836146958E+04    0.11717E+01   -0.48279E+00 18344   0.367E+00    0.256E+00
DAV:   5    -0.160804875994E+04    0.31271E+00   -0.24559E+00 16072   0.235E+00    0.801E-01
DAV:   6    -0.160804247340E+04    0.62865E-02   -0.39697E-01 15792   0.103E+00    0.557E-01
DAV:   7    -0.160803828866E+04    0.41847E-02   -0.73734E-02 14944   0.456E-01    0.379E-01
DAV:   8    -0.160803872483E+04   -0.43616E-03   -0.27824E-02 16544   0.209E-01    0.193E-01
DAV:   9    -0.160804034140E+04   -0.16166E-02   -0.11529E-02 15616   0.140E-01    0.129E-01
DAV:  10    -0.160803972585E+04    0.61554E-03   -0.24771E-03 16312   0.870E-02    0.775E-02
DAV:  11    -0.160803950318E+04    0.22268E-03   -0.15408E-03 17232   0.519E-02    0.326E-02
DAV:  12    -0.160803954788E+04   -0.44700E-04   -0.48223E-04 17584   0.290E-02    0.248E-02
DAV:  13    -0.160803954904E+04   -0.11600E-05   -0.93844E-05 14616   0.163E-02
   2 F= -.16080395E+04 E0= -.16080377E+04  d E =0.755435E+01
       N       E                     dE             d eps       ncg     rms          rms(c)
DAV:   1    -0.162279830599E+04   -0.14759E+02   -0.25170E+02 12040   0.258E+01    0.880E+00
DAV:   2    -0.161927813034E+04    0.35202E+01   -0.74240E+00 15984   0.443E+00    0.434E+00
DAV:   3    -0.161867365723E+04    0.60447E+00   -0.42636E+00 16680   0.344E+00    0.315E+00
DAV:   4    -0.161805711886E+04    0.61654E+00   -0.19130E+00 16616   0.265E+00    0.119E+00
DAV:   5    -0.161800397170E+04    0.53147E-01   -0.78480E-01 15168   0.138E+00    0.444E-01
DAV:   6    -0.161800387182E+04    0.99880E-04   -0.10744E-01 14848   0.564E-01    0.310E-01
DAV:   7    -0.161800398526E+04   -0.11344E-03   -0.18767E-02 15008   0.224E-01    0.202E-01
DAV:   8    -0.161800566250E+04   -0.16772E-02   -0.10463E-02 16288   0.125E-01    0.896E-02
DAV:   9    -0.161800630053E+04   -0.63803E-03   -0.22033E-03 14560   0.712E-02    0.533E-02
DAV:  10    -0.161800633324E+04   -0.32711E-04   -0.70595E-04 16192   0.416E-02    0.299E-02
DAV:  11    -0.161800641517E+04   -0.81932E-04   -0.33478E-04 16056   0.272E-02    0.216E-02
DAV:  12    -0.161800648373E+04   -0.68560E-04   -0.10776E-04 13768   0.152E-02    0.116E-02
DAV:  13    -0.161800648196E+04    0.17684E-05   -0.17927E-05  7824   0.745E-03
   3 F= -.16180065E+04 E0= -.16180102E+04  d E =-.996693E+01
       N       E                     dE             d eps       ncg     rms          rms(c)
DAV:   1    -0.161810894341E+04   -0.10246E+00   -0.16007E+01 12040   0.508E+00    0.631E-01
DAV:   2    -0.161812821298E+04   -0.19270E-01   -0.28296E-01 17032   0.938E-01    0.549E-01
DAV:   3    -0.161810783737E+04    0.20376E-01   -0.91556E-02 17536   0.537E-01    0.318E-01
DAV:   4    -0.161810575915E+04    0.20782E-02   -0.14659E-02 17496   0.185E-01    0.185E-01
DAV:   5    -0.161810484698E+04    0.91216E-03   -0.74253E-03 16096   0.141E-01    0.641E-02
DAV:   6    -0.161810470257E+04    0.14442E-03   -0.19049E-03 15608   0.787E-02    0.394E-02
DAV:   7    -0.161810466241E+04    0.40154E-04   -0.38091E-04 15840   0.308E-02    0.238E-02
DAV:   8    -0.161810465442E+04    0.79910E-05   -0.99381E-05 14272   0.142E-02
   4 F= -.16181047E+04 E0= -.16181090E+04  d E =-.981725E-01
       N       E                     dE             d eps       ncg     rms          rms(c)
DAV:   1    -0.161813275973E+04   -0.28097E-01   -0.50204E+00 12040   0.284E+00    0.325E-01
DAV:   2    -0.161813925774E+04   -0.64980E-02   -0.77262E-02 16408   0.541E-01    0.311E-01
DAV:   3    -0.161813165112E+04    0.76066E-02   -0.26264E-02 17024   0.303E-01    0.166E-01
DAV:   4    -0.161813102984E+04    0.62128E-03   -0.43091E-03 16560   0.990E-02    0.856E-02
DAV:   5    -0.161813084542E+04    0.18442E-03   -0.20047E-03 15576   0.757E-02    0.324E-02
DAV:   6    -0.161813079920E+04    0.46222E-04   -0.45887E-04 15184   0.398E-02    0.202E-02
DAV:   7    -0.161813078656E+04    0.12645E-04   -0.86361E-05 13832   0.140E-02    0.121E-02
DAV:   8    -0.161813078248E+04    0.40760E-05   -0.18680E-05  7696   0.685E-03
   5 F= -.16181308E+04 E0= -.16181353E+04  d E =-.261281E-01
       N       E                     dE             d eps       ncg     rms          rms(c)
DAV:   1    -0.161813838619E+04   -0.75996E-02   -0.22803E+00 12046   0.192E+00    0.222E-01
DAV:   2    -0.161814161286E+04   -0.32267E-02   -0.35910E-02 16424   0.377E-01    0.219E-01
DAV:   3    -0.161813772819E+04    0.38847E-02   -0.12749E-02 16954   0.214E-01    0.114E-01
DAV:   4    -0.161813741440E+04    0.31380E-03   -0.22406E-03 16160   0.725E-02    0.479E-02
DAV:   5    -0.161813734167E+04    0.72731E-04   -0.83434E-04 15728   0.518E-02    0.196E-02
DAV:   6    -0.161813732803E+04    0.13634E-04   -0.17691E-04 15240   0.235E-02    0.118E-02
DAV:   7    -0.161813732408E+04    0.39539E-05   -0.28498E-05  8080   0.922E-03
   6 F= -.16181373E+04 E0= -.16181420E+04  d E =-.654160E-02
       N       E                     dE             d eps       ncg     rms          rms(c)
DAV:   1    -0.161813783310E+04   -0.50506E-03   -0.82289E-02 12208   0.371E-01    0.549E-02
DAV:   2    -0.161813781762E+04    0.15473E-04   -0.11573E-03 17056   0.618E-02    0.416E-02
DAV:   3    -0.161813771419E+04    0.10343E-03   -0.45300E-04 17768   0.378E-02    0.265E-02
DAV:   4    -0.161813766597E+04    0.48222E-04   -0.91511E-05 14088   0.158E-02    0.100E-02
DAV:   5    -0.161813765366E+04    0.12304E-04   -0.24729E-05  8600   0.101E-02    0.428E-03
DAV:   6    -0.161813765244E+04    0.12248E-05   -0.74228E-06  7016   0.671E-03
   7 F= -.16181377E+04 E0= -.16181424E+04  d E =-.328359E-03
       N       E                     dE             d eps       ncg     rms          rms(c)
DAV:   1    -0.161813789652E+04   -0.24286E-03   -0.76306E-03 12216   0.127E-01    0.355E-02
DAV:   2    -0.161813787289E+04    0.23628E-04   -0.13572E-04 15000   0.170E-02    0.174E-02
DAV:   3    -0.161813787813E+04   -0.52343E-05   -0.46813E-05 11272   0.108E-02    0.101E-02
DAV:   4    -0.161813788379E+04   -0.56580E-05   -0.14811E-05  8552   0.884E-03    0.463E-03
DAV:   5    -0.161813788994E+04   -0.61510E-05   -0.80732E-06  6600   0.575E-03
   8 F= -.16181379E+04 E0= -.16181426E+04  d E =-.237500E-03
       N       E                     dE             d eps       ncg     rms          rms(c)
DAV:   1    -0.161813809940E+04   -0.21562E-03   -0.21314E-02 12208   0.186E-01    0.195E-02
DAV:   2    -0.161813810306E+04   -0.36539E-05   -0.18625E-04 17328   0.183E-02    0.145E-02
DAV:   3    -0.161813809766E+04    0.53937E-05   -0.15847E-05  8440   0.824E-03    0.110E-02
DAV:   4    -0.161813808874E+04    0.89244E-05   -0.14190E-05  6784   0.661E-03    0.206E-03
DAV:   5    -0.161813808840E+04    0.34219E-06   -0.34062E-06  6488   0.425E-03
   9 F= -.16181381E+04 E0= -.16181428E+04  d E =-.198458E-03
       N       E                     dE             d eps       ncg     rms          rms(c)
DAV:   1    -0.161813826983E+04   -0.18109E-03   -0.28108E-02 12208   0.213E-01    0.212E-02
DAV:   2    -0.161813828854E+04   -0.18711E-04   -0.23619E-04 17592   0.200E-02    0.158E-02
DAV:   3    -0.161813828734E+04    0.11950E-05   -0.15664E-05  8192   0.772E-03    0.928E-03
DAV:   4    -0.161813828953E+04   -0.21855E-05   -0.11557E-05  7288   0.742E-03    0.208E-03
DAV:   5    -0.161813828956E+04   -0.35619E-07   -0.31407E-06  6472   0.433E-03
  10 F= -.16181383E+04 E0= -.16181430E+04  d E =-.201168E-03
       N       E                     dE             d eps       ncg     rms          rms(c)
DAV:   1    -0.161813833598E+04   -0.46450E-04   -0.11269E-03 12208   0.488E-02    0.138E-02
DAV:   2    -0.161813831562E+04    0.20361E-04   -0.17582E-05  6656   0.771E-03    0.703E-03
DAV:   3    -0.161813830929E+04    0.63295E-05   -0.81085E-06  6512   0.675E-03    0.480E-03
DAV:   4    -0.161813830170E+04    0.75909E-05   -0.44814E-06  6440   0.471E-03    0.153E-03
DAV:   5    -0.161813829926E+04    0.24413E-05   -0.21294E-06  6384   0.269E-03
  11 F= -.16181383E+04 E0= -.16181430E+04  d E =-.969227E-05
       N       E                     dE             d eps       ncg     rms          rms(c)
DAV:   1    -0.161813840097E+04   -0.99273E-04   -0.10187E-02 12208   0.129E-01    0.144E-02
DAV:   2    -0.161813840959E+04   -0.86175E-05   -0.85705E-05 14848   0.122E-02    0.101E-02
DAV:   3    -0.161813841136E+04   -0.17677E-05   -0.10184E-05  7008   0.560E-03    0.589E-03
DAV:   4    -0.161813841417E+04   -0.28173E-05   -0.48360E-06  6480   0.490E-03    0.170E-03
DAV:   5    -0.161813841502E+04   -0.85061E-06   -0.19090E-06  6344   0.303E-03
  12 F= -.16181384E+04 E0= -.16181431E+04  d E =-.115768E-03
       N       E                     dE             d eps       ncg     rms          rms(c)
DAV:   1    -0.161813850534E+04   -0.91165E-04   -0.10215E-02 12208   0.128E-01    0.129E-02
DAV:   2    -0.161813850680E+04   -0.14621E-05   -0.85093E-05 14960   0.120E-02    0.963E-03
DAV:   3    -0.161813850378E+04    0.30175E-05   -0.86821E-06  6864   0.524E-03    0.599E-03
DAV:   4    -0.161813850033E+04    0.34578E-05   -0.51271E-06  6392   0.458E-03    0.134E-03
DAV:   5    -0.161813850026E+04    0.65427E-07   -0.15463E-06  6312   0.286E-03
  13 F= -.16181385E+04 E0= -.16181432E+04  d E =-.852362E-04
       N       E                     dE             d eps       ncg     rms          rms(c)
DAV:   1    -0.161813854676E+04   -0.46435E-04   -0.47685E-03 12208   0.888E-02    0.116E-02
DAV:   2    -0.161813855261E+04   -0.58531E-05   -0.32131E-05  9048   0.883E-03    0.728E-03
DAV:   3    -0.161813855590E+04   -0.32911E-05   -0.10620E-05  6632   0.561E-03    0.448E-03
DAV:   4    -0.161813855959E+04   -0.36809E-05   -0.54154E-06  6296   0.447E-03    0.150E-03
DAV:   5    -0.161813856087E+04   -0.12817E-05   -0.27497E-06  6272   0.300E-03
  14 F= -.16181386E+04 E0= -.16181433E+04  d E =-.606072E-04
       N       E                     dE             d eps       ncg     rms          rms(c)
DAV:   1    -0.161813860697E+04   -0.47386E-04   -0.19752E-03 12208   0.579E-02    0.965E-03
DAV:   2    -0.161813859758E+04    0.93901E-05   -0.16617E-05  6336   0.669E-03    0.560E-03
DAV:   3    -0.161813859418E+04    0.34063E-05   -0.68194E-06  6272   0.481E-03    0.371E-03
DAV:   4    -0.161813858996E+04    0.42176E-05   -0.35510E-06  6272   0.362E-03    0.138E-03
DAV:   5    -0.161813858869E+04    0.12717E-05   -0.19080E-06  6272   0.248E-03
  15 F= -.16181386E+04 E0= -.16181433E+04  d E =-.278185E-04
       N       E                     dE             d eps       ncg     rms          rms(c)
DAV:   1    -0.161813863149E+04   -0.41535E-04   -0.43301E-03 12208   0.835E-02    0.862E-03
DAV:   2    -0.161813863472E+04   -0.32283E-05   -0.27640E-05  9304   0.806E-03    0.622E-03
DAV:   3    -0.161813863626E+04   -0.15377E-05   -0.89476E-06  6512   0.466E-03    0.270E-03
DAV:   4    -0.161813863767E+04   -0.14102E-05   -0.45101E-06  6272   0.380E-03    0.826E-04
DAV:   5    -0.161813863767E+04   -0.11664E-08   -0.22741E-06  6272   0.266E-03
  16 F= -.16181386E+04 E0= -.16181434E+04  d E =-.489838E-04
       N       E                     dE             d eps       ncg     rms          rms(c)
DAV:   1    -0.161813868598E+04   -0.48307E-04   -0.57606E-03 12208   0.965E-02    0.105E-02
DAV:   2    -0.161813868328E+04    0.26971E-05   -0.48127E-05 11352   0.959E-03    0.748E-03
DAV:   3    -0.161813868074E+04    0.25417E-05   -0.88509E-06  6568   0.520E-03    0.480E-03
DAV:   4    -0.161813867714E+04    0.35983E-05   -0.40833E-06  6272   0.401E-03    0.125E-03
DAV:   5    -0.161813867669E+04    0.44779E-06   -0.18187E-06  6272   0.268E-03
  17 F= -.16181387E+04 E0= -.16181434E+04  d E =-.390210E-04
       N       E                     dE             d eps       ncg     rms          rms(c)
DAV:   1    -0.161813868049E+04   -0.33473E-05   -0.14881E-04 12008   0.182E-02    0.566E-03
DAV:   2    -0.161813868414E+04   -0.36503E-05   -0.31973E-06  6272   0.302E-03    0.281E-03
DAV:   3    -0.161813868600E+04   -0.18626E-05   -0.14909E-06  6272   0.260E-03    0.192E-03
DAV:   4    -0.161813868825E+04   -0.22561E-05   -0.78418E-07  6272   0.189E-03    0.620E-04
DAV:   5    -0.161813868929E+04   -0.10314E-05   -0.39525E-07  6272   0.111E-03
  18 F= -.16181387E+04 E0= -.16181434E+04  d E =-.125955E-04
       N       E                     dE             d eps       ncg     rms          rms(c)
DAV:   1    -0.161813872178E+04   -0.33521E-04   -0.33509E-03 12196   0.734E-02    0.723E-03
DAV:   2    -0.161813872135E+04    0.42275E-06   -0.17913E-05  6960   0.680E-03    0.524E-03
DAV:   3    -0.161813872016E+04    0.11970E-05   -0.64941E-06  6362   0.377E-03    0.191E-03
DAV:   4    -0.161813871977E+04    0.39075E-06   -0.31811E-06  6272   0.303E-03    0.730E-04
DAV:   5    -0.161813871997E+04   -0.20940E-06   -0.16567E-06  6260   0.223E-03
  19 F= -.16181387E+04 E0= -.16181435E+04  d E =-.306884E-04
       N       E                     dE             d eps       ncg     rms          rms(c)
DAV:   1    -0.161813876352E+04   -0.43753E-04   -0.14414E-02 12172   0.152E-01    0.153E-02
DAV:   2    -0.161813877497E+04   -0.11453E-04   -0.12694E-04 16608   0.145E-02    0.115E-02
DAV:   3    -0.161813877526E+04   -0.28423E-06   -0.95145E-06  7340   0.557E-03    0.646E-03
DAV:   4    -0.161813877732E+04   -0.20686E-05   -0.58758E-06  6488   0.523E-03    0.146E-03
DAV:   5    -0.161813877734E+04   -0.10315E-07   -0.16476E-06  6288   0.302E-03
  20 F= -.16181388E+04 E0= -.16181435E+04  d E =-.573605E-04
       N       E                     dE             d eps       ncg     rms          rms(c)
DAV:   1    -0.161813876313E+04    0.14194E-04   -0.39574E-03 12196   0.808E-02    0.102E-02
DAV:   2    -0.161813875501E+04    0.81208E-05   -0.21314E-05  6784   0.772E-03    0.652E-03
DAV:   3    -0.161813875092E+04    0.40883E-05   -0.72506E-06  6266   0.470E-03    0.392E-03
DAV:   4    -0.161813874677E+04    0.41539E-05   -0.39186E-06  6272   0.384E-03    0.118E-03
DAV:   5    -0.161813874626E+04    0.51232E-06   -0.18330E-06  6272   0.255E-03
  21 F= -.16181387E+04 E0= -.16181435E+04  d E =0.310797E-04
       N       E                     dE             d eps       ncg     rms          rms(c)
DAV:   1    -0.161813877414E+04   -0.27376E-04   -0.43684E-03 12196   0.840E-02    0.781E-03
DAV:   2    -0.161813877489E+04   -0.74825E-06   -0.19995E-05  6720   0.735E-03    0.571E-03
DAV:   3    -0.161813877453E+04    0.36234E-06   -0.64552E-06  6272   0.385E-03    0.169E-03
DAV:   4    -0.161813877475E+04   -0.22079E-06   -0.28060E-06  6272   0.307E-03    0.890E-04
DAV:   5    -0.161813877480E+04   -0.48517E-07   -0.13876E-06  6272   0.214E-03
  22 F= -.16181388E+04 E0= -.16181435E+04  d E =-.285436E-04
       N       E                     dE             d eps       ncg     rms          rms(c)
DAV:   1    -0.161813881641E+04   -0.41664E-04   -0.27550E-02 12100   0.210E-01    0.201E-02
DAV:   2    -0.161813883272E+04   -0.16302E-04   -0.23214E-04 17616   0.195E-02    0.154E-02
DAV:   3    -0.161813882853E+04    0.41885E-05   -0.18671E-05  7712   0.711E-03    0.495E-03
DAV:   4    -0.161813882926E+04   -0.73563E-06   -0.68118E-06  6976   0.621E-03    0.244E-03
DAV:   5    -0.161813882879E+04    0.47507E-06   -0.18530E-06  6386   0.351E-03
  23 F= -.16181388E+04 E0= -.16181436E+04  d E =-.539897E-04
       N       E                     dE             d eps       ncg     rms          rms(c)
DAV:   1    -0.161813883082E+04   -0.15569E-05   -0.93039E-05 11912   0.140E-02    0.391E-03
DAV:   2    -0.161813882670E+04    0.41166E-05   -0.14369E-06  6272   0.205E-03    0.200E-03
DAV:   3    -0.161813882502E+04    0.16868E-05   -0.67191E-07  6272   0.172E-03    0.132E-03
DAV:   4    -0.161813882322E+04    0.17923E-05   -0.36744E-07  6272   0.132E-03    0.407E-04
DAV:   5    -0.161813882260E+04    0.62250E-06   -0.17866E-07  6272   0.760E-04
  24 F= -.16181388E+04 E0= -.16181436E+04  d E =0.618619E-05
       N       E                     dE             d eps       ncg     rms          rms(c)
DAV:   1    -0.161813882721E+04   -0.39806E-05   -0.72540E-04 12208   0.344E-02    0.404E-03
DAV:   2    -0.161813882924E+04   -0.20354E-05   -0.40731E-06  6272   0.331E-03    0.267E-03
DAV:   3    -0.161813883029E+04   -0.10465E-05   -0.14177E-06  6272   0.200E-03    0.164E-03
DAV:   4    -0.161813883159E+04   -0.13029E-05   -0.78159E-07  6272   0.163E-03    0.476E-04
DAV:   5    -0.161813883182E+04   -0.23023E-06   -0.38930E-07  6272   0.114E-03
  25 F= -.16181388E+04 E0= -.16181436E+04  d E =-.921816E-05
       N       E                     dE             d eps       ncg     rms          rms(c)
DAV:   1    -0.161813883614E+04   -0.45475E-05   -0.45308E-04 12164   0.270E-02    0.276E-03
DAV:   2    -0.161813883572E+04    0.41867E-06   -0.28253E-06  6272   0.269E-03    0.199E-03
DAV:   3    -0.161813883523E+04    0.48725E-06   -0.11239E-06  6266   0.158E-03    0.729E-04
DAV:   4    -0.161813883500E+04    0.22938E-06   -0.57516E-07  6272   0.125E-03    0.282E-04
DAV:   5    -0.161813883506E+04   -0.60165E-07   -0.31409E-07  6272   0.956E-04
  26 F= -.16181388E+04 E0= -.16181436E+04  d E =-.324209E-05
       N       E                     dE             d eps       ncg     rms          rms(c)
DAV:   1    -0.161813883513E+04   -0.12417E-06   -0.11695E-04 11960   0.141E-02    0.236E-03
DAV:   2    -0.161813883682E+04   -0.16887E-05   -0.11505E-06  6272   0.179E-03    0.136E-03
DAV:   3    -0.161813883757E+04   -0.75414E-06   -0.48933E-07  6272   0.131E-03    0.901E-04
DAV:   4    -0.161813883852E+04   -0.95054E-06   -0.26792E-07  6272   0.985E-04    0.331E-04
DAV:   5    -0.161813883886E+04   -0.33788E-06   -0.14974E-07  6272   0.691E-04
  27 F= -.16181388E+04 E0= -.16181436E+04  d E =-.379524E-05
       N       E                     dE             d eps       ncg     rms          rms(c)
DAV:   1    -0.161813884201E+04   -0.34892E-05   -0.10409E-04 11904   0.131E-02    0.189E-03
DAV:   2    -0.161813884074E+04    0.12687E-05   -0.87547E-07  6272   0.152E-03    0.116E-03
DAV:   3    -0.161813884017E+04    0.57414E-06   -0.34113E-07  6272   0.100E-03    0.739E-04
DAV:   4    -0.161813883949E+04    0.67968E-06   -0.17878E-07  6272   0.769E-04    0.271E-04
DAV:   5    -0.161813883929E+04    0.20145E-06   -0.98487E-08  6272   0.552E-04
  28 F= -.16181388E+04 E0= -.16181436E+04  d E =-.427326E-06
       N       E                     dE             d eps       ncg     rms          rms(c)
DAV:   1    -0.161813884139E+04   -0.19003E-05   -0.26007E-04 12052   0.204E-02    0.202E-03
DAV:   2    -0.161813884165E+04   -0.26220E-06   -0.15436E-06  6272   0.201E-03    0.147E-03
DAV:   3    -0.161813884185E+04   -0.19867E-06   -0.59912E-07  6266   0.117E-03    0.434E-04
DAV:   4    -0.161813884195E+04   -0.10566E-06   -0.28928E-07  6272   0.930E-04    0.231E-04
DAV:   5    -0.161813884194E+04    0.17224E-07   -0.15853E-07  6272   0.678E-04
  29 F= -.16181388E+04 E0= -.16181436E+04  d E =-.265106E-05
       N       E                     dE             d eps       ncg     rms          rms(c)
DAV:   1    -0.161813884738E+04   -0.54287E-05   -0.11944E-03 12184   0.440E-02    0.467E-03
DAV:   2    -0.161813884556E+04    0.18264E-05   -0.68881E-06  6272   0.427E-03    0.323E-03
DAV:   3    -0.161813884441E+04    0.11428E-05   -0.23983E-06  6266   0.248E-03    0.182E-03
DAV:   4    -0.161813884321E+04    0.12040E-05   -0.12997E-06  6272   0.206E-03    0.512E-04
DAV:   5    -0.161813884317E+04    0.37797E-07   -0.67989E-07  6272   0.149E-03
  30 F= -.16181388E+04 E0= -.16181436E+04  d E =-.123490E-05
       N       E                     dE             d eps       ncg     rms          rms(c)
DAV:   1    -0.161813884037E+04    0.28367E-05   -0.25796E-04 12068   0.209E-02    0.307E-03
DAV:   2    -0.161813884227E+04   -0.18995E-05   -0.14309E-06  6272   0.205E-03    0.181E-03
DAV:   3    -0.161813884317E+04   -0.89453E-06   -0.46278E-07  6266   0.130E-03    0.118E-03
DAV:   4    -0.161813884426E+04   -0.10959E-05   -0.22103E-07  6272   0.983E-04    0.423E-04
DAV:   5    -0.161813884468E+04   -0.42164E-06   -0.98845E-08  6272   0.606E-04
  31 F= -.16181388E+04 E0= -.16181436E+04  d E =-.151259E-05
       N       E                     dE             d eps       ncg     rms          rms(c)
DAV:   1    -0.161813884662E+04   -0.23563E-05   -0.25742E-04 12020   0.204E-02    0.189E-03
DAV:   2    -0.161813884659E+04    0.33046E-07   -0.13057E-06  6272   0.188E-03    0.138E-03
DAV:   3    -0.161813884647E+04    0.11947E-06   -0.43003E-07  6266   0.979E-04    0.400E-04
DAV:   4    -0.161813884644E+04    0.27312E-07   -0.19265E-07  6272   0.757E-04    0.207E-04
DAV:   5    -0.161813884645E+04   -0.13179E-07   -0.99431E-08  6272   0.552E-04
  32 F= -.16181388E+04 E0= -.16181436E+04  d E =-.176797E-05
       N       E                     dE             d eps       ncg     rms          rms(c)
DAV:   1    -0.161813885035E+04   -0.39137E-05   -0.24149E-03 12184   0.623E-02    0.598E-03
DAV:   2    -0.161813885029E+04    0.58943E-07   -0.12813E-05  6800   0.579E-03    0.438E-03
DAV:   3    -0.161813884945E+04    0.84734E-06   -0.48413E-06  6362   0.320E-03    0.940E-04
DAV:   4    -0.161813884947E+04   -0.23485E-07   -0.21239E-06  6272   0.237E-03    0.590E-04
DAV:   5    -0.161813884960E+04   -0.13048E-06   -0.11403E-06  6266   0.185E-03
  33 F= -.16181388E+04 E0= -.16181436E+04  d E =-.314825E-05
