       N       E                     dE             d eps       ncg     rms          rms(c)
DAV:   1     0.225680657742E+04    0.22568E+04   -0.29307E+05 11704   0.143E+03
DAV:   2    -0.119549822442E+04   -0.34523E+04   -0.33130E+04 13548   0.302E+02
DAV:   3    -0.163457982930E+04   -0.43908E+03   -0.40702E+03 18016   0.820E+01
DAV:   4    -0.165940869687E+04   -0.24829E+02   -0.23270E+02 16432   0.175E+01
DAV:   5    -0.166046975653E+04   -0.10611E+01   -0.10429E+01 18056   0.413E+00    0.411E+01
DAV:   6    -0.161426071845E+04    0.46209E+02   -0.90358E+01 17648   0.121E+01    0.220E+01
DAV:   7    -0.160305005167E+04    0.11211E+02   -0.76711E+01 16608   0.123E+01    0.147E+01
DAV:   8    -0.159408375510E+04    0.89663E+01   -0.43149E+01 17712   0.116E+01    0.737E+00
DAV:   9    -0.159128392240E+04    0.27998E+01   -0.17173E+01 18192   0.654E+00    0.227E+00
DAV:  10    -0.159129344981E+04   -0.95274E-02   -0.26752E+00 15704   0.235E+00    0.154E+00
DAV:  11    -0.159128157094E+04    0.11879E-01   -0.45191E-01 16184   0.958E-01    0.976E-01
DAV:  12    -0.159126636513E+04    0.15206E-01   -0.14663E-01 15616   0.657E-01    0.553E-01
DAV:  13    -0.159125541849E+04    0.10947E-01   -0.52461E-02 16168   0.401E-01    0.292E-01
DAV:  14    -0.159125261561E+04    0.28029E-02   -0.16843E-02 14472   0.173E-01    0.977E-02
DAV:  15    -0.159125251640E+04    0.99213E-04   -0.31655E-03 16280   0.865E-02    0.529E-02
DAV:  16    -0.159125245530E+04    0.61100E-04   -0.78788E-04 16064   0.484E-02    0.338E-02
DAV:  17    -0.159125241324E+04    0.42061E-04   -0.29046E-04 14888   0.296E-02    0.171E-02
DAV:  18    -0.159125239573E+04    0.17506E-04   -0.77815E-05 12312   0.139E-02    0.839E-03
DAV:  19    -0.159125238838E+04    0.73530E-05   -0.20748E-05  7512   0.710E-03
   1 F= -.15912524E+04 E0= -.15912638E+04  d E =-.159125E+04
       N       E                     dE             d eps       ncg     rms          rms(c)
DAV:   1    -0.159649634171E+04   -0.52439E+01   -0.13605E+03 11704   0.549E+01    0.200E+01
DAV:   2    -0.158052059297E+04    0.15976E+02   -0.87399E+01 18224   0.115E+01    0.110E+01
DAV:   3    -0.157637302922E+04    0.41476E+01   -0.42192E+01 19984   0.825E+00    0.736E+00
DAV:   4    -0.157449423017E+04    0.18788E+01   -0.11887E+01 19472   0.544E+00    0.513E+00
DAV:   5    -0.157317136824E+04    0.13229E+01   -0.73927E+00 18360   0.389E+00    0.183E+00
DAV:   6    -0.157307484464E+04    0.96524E-01   -0.17484E+00 17480   0.193E+00    0.111E+00
DAV:   7    -0.157305697654E+04    0.17868E-01   -0.31047E-01 16176   0.846E-01    0.792E-01
DAV:   8    -0.157305171806E+04    0.52585E-02   -0.98888E-02 17312   0.381E-01    0.422E-01
DAV:   9    -0.157305788755E+04   -0.61695E-02   -0.58265E-02 17952   0.261E-01    0.254E-01
DAV:  10    -0.157305843159E+04   -0.54404E-03   -0.12947E-02 16896   0.187E-01    0.191E-01
DAV:  11    -0.157305711899E+04    0.13126E-02   -0.68073E-03 19968   0.119E-01    0.795E-02
DAV:  12    -0.157305710180E+04    0.17191E-04   -0.27336E-03 17664   0.615E-02    0.427E-02
DAV:  13    -0.157305721901E+04   -0.11722E-03   -0.49397E-04 16208   0.309E-02    0.239E-02
DAV:  14    -0.157305722525E+04   -0.62366E-05   -0.15372E-04 15272   0.204E-02    0.128E-02
DAV:  15    -0.157305722999E+04   -0.47438E-05   -0.39936E-05  8920   0.101E-02
   2 F= -.15730572E+04 E0= -.15730667E+04  d E =0.181952E+02
       N       E                     dE             d eps       ncg     rms          rms(c)
DAV:   1    -0.160747667671E+04   -0.34419E+02   -0.59242E+02 11704   0.404E+01    0.138E+01
DAV:   2    -0.159888345883E+04    0.85932E+01   -0.22502E+01 15994   0.689E+00    0.616E+00
DAV:   3    -0.159749900482E+04    0.13845E+01   -0.88903E+00 16560   0.408E+00    0.428E+00
DAV:   4    -0.159670927601E+04    0.78973E+00   -0.38731E+00 17920   0.359E+00    0.244E+00
DAV:   5    -0.159637817740E+04    0.33110E+00   -0.20453E+00 17160   0.235E+00    0.801E-01
DAV:   6    -0.159637060830E+04    0.75691E-02   -0.40056E-01 15296   0.991E-01    0.505E-01
DAV:   7    -0.159637513199E+04   -0.45237E-02   -0.62404E-02 15912   0.347E-01    0.325E-01
DAV:   8    -0.159637916230E+04   -0.40303E-02   -0.17375E-02 16224   0.180E-01    0.171E-01
DAV:   9    -0.159638303336E+04   -0.38711E-02   -0.10275E-02 15576   0.140E-01    0.125E-01
DAV:  10    -0.159638294774E+04    0.85615E-04   -0.31190E-03 15488   0.853E-02    0.501E-02
DAV:  11    -0.159638311635E+04   -0.16861E-03   -0.12141E-03 17392   0.460E-02    0.332E-02
DAV:  12    -0.159638324599E+04   -0.12964E-03   -0.29728E-04 15456   0.267E-02    0.294E-02
DAV:  13    -0.159638326761E+04   -0.21619E-04   -0.12206E-04 14144   0.148E-02    0.127E-02
DAV:  14    -0.159638326162E+04    0.59904E-05   -0.34015E-05  7680   0.799E-03
   3 F= -.15963833E+04 E0= -.15963738E+04  d E =-.233260E+02
       N       E                     dE             d eps       ncg     rms          rms(c)
DAV:   1    -0.159644451776E+04   -0.61250E-01   -0.91405E+00 11704   0.394E+00    0.507E-01
DAV:   2    -0.159645259328E+04   -0.80755E-02   -0.17426E-01 17496   0.548E-01    0.360E-01
DAV:   3    -0.159644877954E+04    0.38137E-02   -0.34115E-02 18688   0.313E-01    0.257E-01
DAV:   4    -0.159644720871E+04    0.15708E-02   -0.83290E-03 19072   0.146E-01    0.165E-01
DAV:   5    -0.159644659171E+04    0.61700E-03   -0.46788E-03 16136   0.101E-01    0.572E-02
DAV:   6    -0.159644653404E+04    0.57665E-04   -0.12618E-03 15736   0.578E-02    0.307E-02
DAV:   7    -0.159644651338E+04    0.20663E-04   -0.26627E-04 15976   0.279E-02    0.212E-02
DAV:   8    -0.159644649729E+04    0.16093E-04   -0.77769E-05 13416   0.138E-02    0.126E-02
DAV:   9    -0.159644649143E+04    0.58577E-05   -0.29234E-05  7496   0.808E-03
   4 F= -.15964465E+04 E0= -.15964367E+04  d E =-.632298E-01
       N       E                     dE             d eps       ncg     rms          rms(c)
DAV:   1    -0.159645801626E+04   -0.11519E-01   -0.17766E+00 11724   0.175E+00    0.278E-01
DAV:   2    -0.159645873157E+04   -0.71532E-03   -0.39418E-02 17696   0.285E-01    0.209E-01
DAV:   3    -0.159645658423E+04    0.21473E-02   -0.12770E-02 18912   0.192E-01    0.126E-01
DAV:   4    -0.159645604661E+04    0.53762E-03   -0.24161E-03 17904   0.783E-02    0.824E-02
DAV:   5    -0.159645579467E+04    0.25194E-03   -0.12523E-03 15504   0.534E-02    0.341E-02
DAV:   6    -0.159645575302E+04    0.41655E-04   -0.37578E-04 15536   0.329E-02    0.185E-02
DAV:   7    -0.159645574561E+04    0.74104E-05   -0.84350E-05 13816   0.163E-02
   5 F= -.15964557E+04 E0= -.15964457E+04  d E =-.925418E-02
       N       E                     dE             d eps       ncg     rms          rms(c)
DAV:   1    -0.159645969822E+04   -0.39452E-02   -0.14743E-01 11904   0.614E-01    0.200E-01
DAV:   2    -0.159645803461E+04    0.16636E-02   -0.50098E-03 16632   0.958E-02    0.903E-02
DAV:   3    -0.159645777737E+04    0.25724E-03   -0.18740E-03 16456   0.562E-02    0.577E-02
DAV:   4    -0.159645770325E+04    0.74125E-04   -0.73465E-04 17672   0.470E-02    0.306E-02
DAV:   5    -0.159645768210E+04    0.21144E-04   -0.32345E-04 17160   0.320E-02    0.117E-02
DAV:   6    -0.159645768520E+04   -0.30967E-05   -0.68437E-05 13144   0.137E-02
   6 F= -.15964577E+04 E0= -.15964477E+04  d E =-.193959E-02
       N       E                     dE             d eps       ncg     rms          rms(c)
DAV:   1    -0.159646151195E+04   -0.38298E-02   -0.27247E-01 11812   0.693E-01    0.122E-01
DAV:   2    -0.159646141242E+04    0.99525E-04   -0.58386E-03 17464   0.113E-01    0.878E-02
DAV:   3    -0.159646102925E+04    0.38317E-03   -0.22030E-03 18976   0.805E-02    0.544E-02
DAV:   4    -0.159646090148E+04    0.12777E-03   -0.45443E-04 17176   0.340E-02    0.339E-02
DAV:   5    -0.159646083399E+04    0.67496E-04   -0.23058E-04 15416   0.234E-02    0.134E-02
DAV:   6    -0.159646082126E+04    0.12728E-04   -0.58415E-05 12776   0.138E-02    0.751E-03
DAV:   7    -0.159646082011E+04    0.11480E-05   -0.13209E-05  7120   0.722E-03
   7 F= -.15964608E+04 E0= -.15964507E+04  d E =-.313491E-02
       N       E                     dE             d eps       ncg     rms          rms(c)
DAV:   1    -0.159646194624E+04   -0.11250E-02   -0.13980E-01 11796   0.483E-01    0.529E-02
DAV:   2    -0.159646210737E+04   -0.16113E-03   -0.17438E-03 17528   0.636E-02    0.492E-02
DAV:   3    -0.159646199668E+04    0.11070E-03   -0.50407E-04 18352   0.404E-02    0.310E-02
DAV:   4    -0.159646198369E+04    0.12990E-04   -0.10257E-04 14272   0.155E-02    0.162E-02
DAV:   5    -0.159646198161E+04    0.20783E-05   -0.49559E-05 11144   0.118E-02
   8 F= -.15964620E+04 E0= -.15964519E+04  d E =-.116150E-02
       N       E                     dE             d eps       ncg     rms          rms(c)
DAV:   1    -0.159646253326E+04   -0.54957E-03   -0.45387E-02 11888   0.286E-01    0.527E-02
DAV:   2    -0.159646244087E+04    0.92386E-04   -0.79572E-04 17144   0.403E-02    0.327E-02
DAV:   3    -0.159646239661E+04    0.44260E-04   -0.29203E-04 19056   0.291E-02    0.234E-02
DAV:   4    -0.159646235867E+04    0.37941E-04   -0.74194E-05 12984   0.149E-02    0.129E-02
DAV:   5    -0.159646233735E+04    0.21325E-04   -0.32326E-05  7912   0.972E-03    0.446E-03
DAV:   6    -0.159646233443E+04    0.29149E-05   -0.91074E-06  6600   0.636E-03
   9 F= -.15964623E+04 E0= -.15964522E+04  d E =-.352824E-03
       N       E                     dE             d eps       ncg     rms          rms(c)
DAV:   1    -0.159646278192E+04   -0.44457E-03   -0.20788E-02 11880   0.195E-01    0.363E-02
DAV:   2    -0.159646277376E+04    0.81629E-05   -0.26197E-04 16784   0.221E-02    0.199E-02
DAV:   3    -0.159646277752E+04   -0.37630E-05   -0.70340E-05 12840   0.152E-02    0.153E-02
DAV:   4    -0.159646277665E+04    0.87191E-06   -0.26763E-05  8872   0.109E-02    0.710E-03
DAV:   5    -0.159646278511E+04   -0.84568E-05   -0.13363E-05  6456   0.622E-03
  10 F= -.15964628E+04 E0= -.15964526E+04  d E =-.450672E-03
       N       E                     dE             d eps       ncg     rms          rms(c)
DAV:   1    -0.159646319801E+04   -0.42136E-03   -0.43206E-02 11784   0.268E-01    0.278E-02
DAV:   2    -0.159646322013E+04   -0.22119E-04   -0.42301E-04 17080   0.286E-02    0.227E-02
DAV:   3    -0.159646320452E+04    0.15610E-04   -0.70989E-05 13388   0.161E-02    0.168E-02
DAV:   4    -0.159646319468E+04    0.98379E-05   -0.27481E-05  7528   0.844E-03    0.721E-03
DAV:   5    -0.159646319109E+04    0.35869E-05   -0.10072E-05  6624   0.666E-03
  11 F= -.15964632E+04 E0= -.15964530E+04  d E =-.405985E-03
       N       E                     dE             d eps       ncg     rms          rms(c)
DAV:   1    -0.159646362256E+04   -0.42788E-03   -0.83529E-02 11752   0.373E-01    0.375E-02
DAV:   2    -0.159646367772E+04   -0.55159E-04   -0.73743E-04 16968   0.363E-02    0.287E-02
DAV:   3    -0.159646366681E+04    0.10909E-04   -0.99191E-05 15064   0.182E-02    0.225E-02
DAV:   4    -0.159646366417E+04    0.26399E-05   -0.50649E-05 11320   0.110E-02    0.612E-03
DAV:   5    -0.159646366583E+04   -0.16577E-05   -0.10285E-05  6782   0.644E-03
  12 F= -.15964637E+04 E0= -.15964535E+04  d E =-.474739E-03
       N       E                     dE             d eps       ncg     rms          rms(c)
DAV:   1    -0.159646368274E+04   -0.18568E-04   -0.27161E-03 11872   0.775E-02    0.217E-02
DAV:   2    -0.159646364223E+04    0.40509E-04   -0.53485E-05 10840   0.108E-02    0.101E-02
DAV:   3    -0.159646362976E+04    0.12470E-04   -0.15199E-05  6824   0.802E-03    0.676E-03
DAV:   4    -0.159646362157E+04    0.81895E-05   -0.54752E-06  6640   0.629E-03    0.339E-03
DAV:   5    -0.159646361563E+04    0.59413E-05   -0.37236E-06  6248   0.343E-03
  13 F= -.15964636E+04 E0= -.15964534E+04  d E =0.502004E-04
       N       E                     dE             d eps       ncg     rms          rms(c)
DAV:   1    -0.159646386257E+04   -0.24100E-03   -0.28388E-02 11772   0.217E-01    0.207E-02
DAV:   2    -0.159646388022E+04   -0.17652E-04   -0.22686E-04 16776   0.198E-02    0.159E-02
DAV:   3    -0.159646387774E+04    0.24783E-05   -0.15874E-05  7962   0.854E-03    0.124E-02
DAV:   4    -0.159646387802E+04   -0.27770E-06   -0.17470E-05  6480   0.709E-03    0.237E-03
DAV:   5    -0.159646387824E+04   -0.21502E-06   -0.37666E-06  6244   0.446E-03
  14 F= -.15964639E+04 E0= -.15964537E+04  d E =-.262606E-03
       N       E                     dE             d eps       ncg     rms          rms(c)
DAV:   1    -0.159646416513E+04   -0.28711E-03   -0.54095E-02 11748   0.299E-01    0.286E-02
DAV:   2    -0.159646418733E+04   -0.22199E-04   -0.46366E-04 17192   0.276E-02    0.220E-02
DAV:   3    -0.159646417942E+04    0.79090E-05   -0.37002E-05  9758   0.117E-02    0.170E-02
DAV:   4    -0.159646416718E+04    0.12235E-04   -0.26869E-05  7648   0.948E-03    0.502E-03
DAV:   5    -0.159646416535E+04    0.18372E-05   -0.85297E-06  6400   0.650E-03
  15 F= -.15964642E+04 E0= -.15964539E+04  d E =-.287112E-03
       N       E                     dE             d eps       ncg     rms          rms(c)
DAV:   1    -0.159646415406E+04    0.13123E-04   -0.90238E-04 11872   0.481E-02    0.158E-02
DAV:   2    -0.159646415654E+04   -0.24805E-05   -0.21966E-05  6312   0.794E-03    0.724E-03
DAV:   3    -0.159646416129E+04   -0.47467E-05   -0.95355E-06  6248   0.721E-03    0.536E-03
DAV:   4    -0.159646416430E+04   -0.30122E-05   -0.44253E-06  6224   0.525E-03    0.210E-03
DAV:   5    -0.159646416744E+04   -0.31423E-05   -0.21476E-06  6200   0.261E-03
  16 F= -.15964642E+04 E0= -.15964539E+04  d E =-.209560E-05
       N       E                     dE             d eps       ncg     rms          rms(c)
DAV:   1    -0.159646433383E+04   -0.16953E-03   -0.16202E-02 11762   0.165E-01    0.178E-02
DAV:   2    -0.159646433036E+04    0.34706E-05   -0.14087E-04 16392   0.152E-02    0.124E-02
DAV:   3    -0.159646432511E+04    0.52453E-05   -0.12423E-05  7400   0.680E-03    0.900E-03
DAV:   4    -0.159646431911E+04    0.60014E-05   -0.73555E-06  6424   0.608E-03    0.425E-03
DAV:   5    -0.159646431590E+04    0.32047E-05   -0.39429E-06  6220   0.413E-03
  17 F= -.15964643E+04 E0= -.15964541E+04  d E =-.148461E-03
       N       E                     dE             d eps       ncg     rms          rms(c)
DAV:   1    -0.159646444090E+04   -0.12179E-03   -0.15999E-02 11756   0.163E-01    0.153E-02
DAV:   2    -0.159646445156E+04   -0.10665E-04   -0.13427E-04 16384   0.146E-02    0.117E-02
DAV:   3    -0.159646445081E+04    0.75010E-06   -0.84206E-06  7086   0.592E-03    0.783E-03
DAV:   4    -0.159646445096E+04   -0.14449E-06   -0.77331E-06  6312   0.570E-03    0.183E-03
DAV:   5    -0.159646445085E+04    0.11191E-06   -0.18606E-06  6200   0.327E-03
  18 F= -.15964645E+04 E0= -.15964542E+04  d E =-.134943E-03
       N       E                     dE             d eps       ncg     rms          rms(c)
DAV:   1    -0.159646458742E+04   -0.13646E-03   -0.21675E-02 11744   0.190E-01    0.210E-02
DAV:   2    -0.159646458220E+04    0.52213E-05   -0.19803E-04 16928   0.178E-02    0.144E-02
DAV:   3    -0.159646457432E+04    0.78827E-05   -0.16277E-05  7688   0.754E-03    0.990E-03
DAV:   4    -0.159646456717E+04    0.71511E-05   -0.95079E-06  6888   0.724E-03    0.497E-03
DAV:   5    -0.159646456290E+04    0.42649E-05   -0.50792E-06  6242   0.491E-03
  19 F= -.15964646E+04 E0= -.15964543E+04  d E =-.112054E-03
       N       E                     dE             d eps       ncg     rms          rms(c)
DAV:   1    -0.159646456499E+04    0.21720E-05   -0.49215E-04 11808   0.348E-02    0.111E-02
DAV:   2    -0.159646456926E+04   -0.42640E-05   -0.99424E-06  6152   0.521E-03    0.512E-03
DAV:   3    -0.159646457354E+04   -0.42866E-05   -0.43700E-06  6128   0.452E-03    0.345E-03
DAV:   4    -0.159646457579E+04   -0.22471E-05   -0.19869E-06  6152   0.348E-03    0.139E-03
DAV:   5    -0.159646457795E+04   -0.21579E-05   -0.95318E-07  6152   0.176E-03
  20 F= -.15964646E+04 E0= -.15964543E+04  d E =-.150487E-04
       N       E                     dE             d eps       ncg     rms          rms(c)
DAV:   1    -0.159646465590E+04   -0.80105E-04   -0.83504E-03 11758   0.118E-01    0.111E-02
DAV:   2    -0.159646465781E+04   -0.19113E-05   -0.60668E-05 12624   0.103E-02    0.840E-03
DAV:   3    -0.159646465591E+04    0.19017E-05   -0.86705E-06  6242   0.507E-03    0.447E-03
DAV:   4    -0.159646465464E+04    0.12656E-05   -0.38500E-06  6224   0.423E-03    0.156E-03
DAV:   5    -0.159646465452E+04    0.11905E-06   -0.14483E-06  6148   0.267E-03
  21 F= -.15964647E+04 E0= -.15964544E+04  d E =-.765723E-04
       N       E                     dE             d eps       ncg     rms          rms(c)
DAV:   1    -0.159646478609E+04   -0.13145E-03   -0.46327E-02 11716   0.277E-01    0.264E-02
DAV:   2    -0.159646481443E+04   -0.28344E-04   -0.38742E-04 17208   0.244E-02    0.199E-02
DAV:   3    -0.159646480989E+04    0.45419E-05   -0.27714E-05  8204   0.882E-03    0.858E-03
DAV:   4    -0.159646481172E+04   -0.18264E-05   -0.12817E-05  7480   0.864E-03    0.374E-03
DAV:   5    -0.159646481087E+04    0.84777E-06   -0.40430E-06  6390   0.551E-03
  22 F= -.15964648E+04 E0= -.15964545E+04  d E =-.156349E-03
       N       E                     dE             d eps       ncg     rms          rms(c)
DAV:   1    -0.159646476068E+04    0.51042E-04   -0.10996E-02 11748   0.136E-01    0.163E-02
DAV:   2    -0.159646474969E+04    0.10984E-04   -0.83524E-05 13848   0.123E-02    0.107E-02
DAV:   3    -0.159646474192E+04    0.77695E-05   -0.11447E-05  6202   0.574E-03    0.632E-03
DAV:   4    -0.159646473685E+04    0.50749E-05   -0.48909E-06  6176   0.517E-03    0.301E-03
DAV:   5    -0.159646473441E+04    0.24398E-05   -0.25129E-06  6056   0.354E-03
  23 F= -.15964647E+04 E0= -.15964545E+04  d E =0.764623E-04
       N       E                     dE             d eps       ncg     rms          rms(c)
DAV:   1    -0.159646480540E+04   -0.68554E-04   -0.11458E-02 11748   0.138E-01    0.129E-02
DAV:   2    -0.159646481129E+04   -0.58918E-05   -0.79101E-05 13808   0.120E-02    0.980E-03
DAV:   3    -0.159646481095E+04    0.34863E-06   -0.10652E-05  6170   0.563E-03    0.434E-03
DAV:   4    -0.159646481166E+04   -0.71447E-06   -0.46100E-06  6152   0.495E-03    0.184E-03
DAV:   5    -0.159646481139E+04    0.26936E-06   -0.14766E-06  6080   0.283E-03
  24 F= -.15964648E+04 E0= -.15964545E+04  d E =-.769825E-04
       N       E                     dE             d eps       ncg     rms          rms(c)
DAV:   1    -0.159646490547E+04   -0.93813E-04   -0.34629E-02 11716   0.239E-01    0.226E-02
DAV:   2    -0.159646491986E+04   -0.14390E-04   -0.29221E-04 17160   0.212E-02    0.171E-02
DAV:   3    -0.159646491191E+04    0.79565E-05   -0.18708E-05  7584   0.768E-03    0.897E-03
DAV:   4    -0.159646490836E+04    0.35506E-05   -0.11685E-05  7232   0.800E-03    0.337E-03
DAV:   5    -0.159646490750E+04    0.85487E-06   -0.36895E-06  6192   0.508E-03
  25 F= -.15964649E+04 E0= -.15964546E+04  d E =-.961106E-04
       N       E                     dE             d eps       ncg     rms          rms(c)
DAV:   1    -0.159646485162E+04    0.56732E-04   -0.10898E-02 11716   0.135E-01    0.158E-02
DAV:   2    -0.159646485906E+04   -0.74394E-05   -0.83634E-05 13904   0.123E-02    0.105E-02
DAV:   3    -0.159646486084E+04   -0.17776E-05   -0.11070E-05  6146   0.574E-03    0.648E-03
DAV:   4    -0.159646486311E+04   -0.22712E-05   -0.48974E-06  6104   0.520E-03    0.315E-03
DAV:   5    -0.159646486480E+04   -0.16839E-05   -0.25740E-06  6032   0.360E-03
  26 F= -.15964649E+04 E0= -.15964546E+04  d E =0.427048E-04
       N       E                     dE             d eps       ncg     rms          rms(c)
DAV:   1    -0.159646492497E+04   -0.61859E-04   -0.11445E-02 11716   0.138E-01    0.134E-02
DAV:   2    -0.159646492507E+04   -0.10192E-06   -0.80296E-05 13864   0.120E-02    0.990E-03
DAV:   3    -0.159646492061E+04    0.44680E-05   -0.10158E-05  6086   0.528E-03    0.474E-03
DAV:   4    -0.159646491855E+04    0.20579E-05   -0.43996E-06  6104   0.466E-03    0.206E-03
DAV:   5    -0.159646491815E+04    0.39300E-06   -0.16594E-06  6032   0.310E-03
  27 F= -.15964649E+04 E0= -.15964546E+04  d E =-.533576E-04
       N       E                     dE             d eps       ncg     rms          rms(c)
DAV:   1    -0.159646495712E+04   -0.38570E-04   -0.10351E-02 11716   0.131E-01    0.122E-02
DAV:   2    -0.159646496422E+04   -0.70979E-05   -0.87772E-05 15096   0.116E-02    0.937E-03
DAV:   3    -0.159646496375E+04    0.46945E-06   -0.82074E-06  6288   0.496E-03    0.416E-03
DAV:   4    -0.159646496425E+04   -0.50934E-06   -0.36558E-06  6128   0.449E-03    0.178E-03
DAV:   5    -0.159646496404E+04    0.21603E-06   -0.11426E-06  6056   0.267E-03
  28 F= -.15964650E+04 E0= -.15964547E+04  d E =-.458845E-04
       N       E                     dE             d eps       ncg     rms          rms(c)
DAV:   1    -0.159646495931E+04    0.49482E-05   -0.92081E-04 11756   0.408E-02    0.733E-03
DAV:   2    -0.159646495143E+04    0.78733E-05   -0.70836E-06  5984   0.436E-03    0.390E-03
DAV:   3    -0.159646494830E+04    0.31340E-05   -0.26675E-06  5976   0.318E-03    0.254E-03
DAV:   4    -0.159646494612E+04    0.21767E-05   -0.11774E-06  5984   0.249E-03    0.122E-03
DAV:   5    -0.159646494478E+04    0.13435E-05   -0.62289E-07  5984   0.147E-03
  29 F= -.15964649E+04 E0= -.15964547E+04  d E =0.192597E-04
       N       E                     dE             d eps       ncg     rms          rms(c)
DAV:   1    -0.159646496745E+04   -0.21331E-04   -0.34957E-03 11734   0.763E-02    0.771E-03
DAV:   2    -0.159646497053E+04   -0.30776E-05   -0.17561E-05  6056   0.670E-03    0.530E-03
DAV:   3    -0.159646497228E+04   -0.17528E-05   -0.58235E-06  5990   0.371E-03    0.272E-03
DAV:   4    -0.159646497355E+04   -0.12698E-05   -0.29023E-06  6008   0.316E-03    0.112E-03
DAV:   5    -0.159646497389E+04   -0.33426E-06   -0.15201E-06  5998   0.222E-03
  30 F= -.15964650E+04 E0= -.15964547E+04  d E =-.291085E-04
       N       E                     dE             d eps       ncg     rms          rms(c)
DAV:   1    -0.159646499034E+04   -0.16782E-04   -0.22435E-03 11724   0.608E-02    0.599E-03
DAV:   2    -0.159646498983E+04    0.50772E-06   -0.13597E-05  6864   0.576E-03    0.433E-03
DAV:   3    -0.159646498908E+04    0.74747E-06   -0.52939E-06  6052   0.350E-03    0.200E-03
DAV:   4    -0.159646498865E+04    0.42925E-06   -0.28104E-06  5960   0.297E-03    0.744E-04
DAV:   5    -0.159646498877E+04   -0.11579E-06   -0.15493E-06  5958   0.219E-03
  31 F= -.15964650E+04 E0= -.15964547E+04  d E =-.148787E-04
       N       E                     dE             d eps       ncg     rms          rms(c)
DAV:   1    -0.159646498645E+04    0.22055E-05   -0.47508E-05 10848   0.112E-02    0.382E-03
DAV:   2    -0.159646498924E+04   -0.27965E-05   -0.19873E-06  5958   0.235E-03    0.163E-03
DAV:   3    -0.159646499076E+04   -0.15148E-05   -0.73786E-07  5954   0.179E-03    0.111E-03
DAV:   4    -0.159646499161E+04   -0.85771E-06   -0.32421E-07  5954   0.125E-03    0.538E-04
DAV:   5    -0.159646499236E+04   -0.74240E-06   -0.18740E-07  5954   0.777E-04
  32 F= -.15964650E+04 E0= -.15964547E+04  d E =-.359007E-05
       N       E                     dE             d eps       ncg     rms          rms(c)
DAV:   1    -0.159646500471E+04   -0.13093E-04   -0.98837E-04 11738   0.405E-02    0.415E-03
DAV:   2    -0.159646500341E+04    0.12964E-05   -0.55774E-06  5954   0.370E-03    0.287E-03
DAV:   3    -0.159646500244E+04    0.97170E-06   -0.20284E-06  5938   0.213E-03    0.142E-03
DAV:   4    -0.159646500186E+04    0.57671E-06   -0.10445E-06  5954   0.179E-03    0.657E-04
DAV:   5    -0.159646500175E+04    0.11181E-06   -0.57757E-07  5948   0.134E-03
  33 F= -.15964650E+04 E0= -.15964547E+04  d E =-.939397E-05
       N       E                     dE             d eps       ncg     rms          rms(c)
DAV:   1    -0.159646501362E+04   -0.11755E-04   -0.20671E-03 11724   0.584E-02    0.557E-03
DAV:   2    -0.159646501480E+04   -0.11830E-05   -0.11709E-05  6548   0.536E-03    0.407E-03
DAV:   3    -0.159646501539E+04   -0.58735E-06   -0.47346E-06  6062   0.317E-03    0.116E-03
DAV:   4    -0.159646501578E+04   -0.39104E-06   -0.22581E-06  5948   0.257E-03    0.724E-04
DAV:   5    -0.159646501580E+04   -0.17800E-07   -0.12462E-06  5948   0.193E-03
  34 F= -.15964650E+04 E0= -.15964547E+04  d E =-.140465E-04
       N       E                     dE             d eps       ncg     rms          rms(c)
DAV:   1    -0.159646502290E+04   -0.71205E-05   -0.22016E-04 11656   0.206E-02    0.466E-03
DAV:   2    -0.159646501815E+04    0.47448E-05   -0.35191E-06  5948   0.293E-03    0.220E-03
DAV:   3    -0.159646501626E+04    0.18953E-05   -0.14536E-06  5948   0.233E-03    0.142E-03
DAV:   4    -0.159646501511E+04    0.11506E-05   -0.66889E-07  5942   0.170E-03    0.761E-04
DAV:   5    -0.159646501423E+04    0.88134E-06   -0.39718E-07  5942   0.117E-03
  35 F= -.15964650E+04 E0= -.15964547E+04  d E =0.156937E-05
       N       E                     dE             d eps       ncg     rms          rms(c)
DAV:   1    -0.159646501707E+04   -0.19596E-05   -0.27430E-04 11632   0.219E-02    0.349E-03
DAV:   2    -0.159646501927E+04   -0.21965E-05   -0.23515E-06  5936   0.239E-03    0.196E-03
DAV:   3    -0.159646502053E+04   -0.12697E-05   -0.95832E-07  5926   0.165E-03    0.118E-03
DAV:   4    -0.159646502131E+04   -0.77897E-06   -0.46183E-07  5936   0.128E-03    0.642E-04
DAV:   5    -0.159646502188E+04   -0.56569E-06   -0.26858E-07  5928   0.916E-04
  36 F= -.15964650E+04 E0= -.15964547E+04  d E =-.765186E-05
       N       E                     dE             d eps       ncg     rms          rms(c)
DAV:   1    -0.159646502793E+04   -0.66146E-05   -0.67206E-04 11724   0.333E-02    0.323E-03
DAV:   2    -0.159646502811E+04   -0.17835E-06   -0.38624E-06  5912   0.307E-03    0.236E-03
DAV:   3    -0.159646502807E+04    0.41476E-07   -0.15850E-06  5904   0.182E-03    0.643E-04
DAV:   4    -0.159646502812E+04   -0.59310E-07   -0.75836E-07  5912   0.146E-03    0.432E-04
DAV:   5    -0.159646502815E+04   -0.24494E-07   -0.42158E-07  5912   0.111E-03
  37 F= -.15964650E+04 E0= -.15964547E+04  d E =-.626958E-05
       N       E                     dE             d eps       ncg     rms          rms(c)
DAV:   1    -0.159646504779E+04   -0.19665E-04   -0.24987E-02 11708   0.203E-01    0.189E-02
DAV:   2    -0.159646506065E+04   -0.12864E-04   -0.20684E-04 16896   0.180E-02    0.145E-02
DAV:   3    -0.159646505544E+04    0.52166E-05   -0.16465E-05  7204   0.671E-03    0.485E-03
DAV:   4    -0.159646505536E+04    0.74926E-07   -0.62421E-06  6624   0.613E-03    0.275E-03
DAV:   5    -0.159646505491E+04    0.45439E-06   -0.18254E-06  6116   0.369E-03
  38 F= -.15964651E+04 E0= -.15964547E+04  d E =-.267588E-04
       N       E                     dE             d eps       ncg     rms          rms(c)
DAV:   1    -0.159646505766E+04   -0.22931E-05   -0.11860E-02 11716   0.140E-01    0.130E-02
DAV:   2    -0.159646506354E+04   -0.58863E-05   -0.10011E-04 15488   0.125E-02    0.994E-03
DAV:   3    -0.159646506110E+04    0.24458E-05   -0.86623E-06  6358   0.495E-03    0.442E-03
DAV:   4    -0.159646506056E+04    0.53859E-06   -0.38917E-06  6216   0.441E-03    0.195E-03
DAV:   5    -0.159646506036E+04    0.19751E-06   -0.12319E-06  6072   0.284E-03
  39 F= -.15964651E+04 E0= -.15964547E+04  d E =-.545192E-05
