       N       E                     dE             d eps       ncg     rms          rms(c)
DAV:   1     0.271900337495E+04    0.27190E+04   -0.31600E+05 12500   0.145E+03
DAV:   2    -0.119165585906E+04   -0.39107E+04   -0.37425E+04 14282   0.344E+02
DAV:   3    -0.170472389317E+04   -0.51307E+03   -0.48855E+03 19120   0.832E+01
DAV:   4    -0.173034781865E+04   -0.25624E+02   -0.24897E+02 17520   0.185E+01
DAV:   5    -0.173142068851E+04   -0.10729E+01   -0.10561E+01 19568   0.385E+00    0.468E+01
DAV:   6    -0.167196731373E+04    0.59453E+02   -0.13870E+02 18168   0.166E+01    0.246E+01
DAV:   7    -0.165675513215E+04    0.15212E+02   -0.88400E+01 18816   0.161E+01    0.155E+01
DAV:   8    -0.164553361531E+04    0.11222E+02   -0.48570E+01 17904   0.124E+01    0.430E+00
DAV:   9    -0.164517084670E+04    0.36277E+00   -0.13612E+01 17920   0.580E+00    0.220E+00
DAV:  10    -0.164515500053E+04    0.15846E-01   -0.17669E+00 15920   0.197E+00    0.153E+00
DAV:  11    -0.164510105021E+04    0.53950E-01   -0.43297E-01 16736   0.865E-01    0.685E-01
DAV:  12    -0.164508922012E+04    0.11830E-01   -0.62818E-02 17616   0.391E-01    0.299E-01
DAV:  13    -0.164508644909E+04    0.27710E-02   -0.16357E-02 17856   0.257E-01    0.137E-01
DAV:  14    -0.164508634176E+04    0.10733E-03   -0.67670E-03 16672   0.116E-01    0.585E-02
DAV:  15    -0.164508639139E+04   -0.49627E-04   -0.10126E-03 15424   0.509E-02    0.265E-02
DAV:  16    -0.164508639932E+04   -0.79344E-05   -0.21093E-04 16720   0.232E-02    0.160E-02
DAV:  17    -0.164508638923E+04    0.10092E-04   -0.53976E-05 12248   0.140E-02    0.782E-03
DAV:  18    -0.164508638288E+04    0.63516E-05   -0.21735E-05  8480   0.753E-03
   1 F= -.16450864E+04 E0= -.16450877E+04  d E =-.164509E+04
       N       E                     dE             d eps       ncg     rms          rms(c)
DAV:   1    -0.164574173585E+04   -0.65535E+00   -0.15910E+02 12460   0.158E+01    0.246E+00
DAV:   2    -0.164569564442E+04    0.46091E-01   -0.30517E+00 17080   0.260E+00    0.141E+00
DAV:   3    -0.164563658528E+04    0.59059E-01   -0.55542E-01 17232   0.122E+00    0.100E+00
DAV:   4    -0.164561009294E+04    0.26492E-01   -0.13315E-01 17416   0.694E-01    0.539E-01
DAV:   5    -0.164560144674E+04    0.86462E-02   -0.70203E-02 15616   0.450E-01    0.169E-01
DAV:   6    -0.164560163445E+04   -0.18771E-03   -0.12506E-02 16104   0.171E-01    0.118E-01
DAV:   7    -0.164560147614E+04    0.15831E-03   -0.23404E-03 15608   0.675E-02    0.651E-02
DAV:   8    -0.164560151730E+04   -0.41163E-04   -0.86068E-04 15712   0.450E-02    0.282E-02
DAV:   9    -0.164560148505E+04    0.32253E-04   -0.16952E-04 16088   0.265E-02    0.144E-02
DAV:  10    -0.164560147692E+04    0.81296E-05   -0.72176E-05 13840   0.108E-02
   2 F= -.16456015E+04 E0= -.16456086E+04  d E =-.515094E+00
       N       E                     dE             d eps       ncg     rms          rms(c)
DAV:   1    -0.164584534647E+04   -0.24386E+00   -0.15684E+01 12460   0.610E+00    0.198E+00
DAV:   2    -0.164566407996E+04    0.18127E+00   -0.29148E-01 14128   0.802E-01    0.964E-01
DAV:   3    -0.164561630865E+04    0.47771E-01   -0.12748E-01 14678   0.558E-01    0.353E-01
DAV:   4    -0.164561004393E+04    0.62647E-02   -0.38678E-02 15528   0.388E-01    0.115E-01
DAV:   5    -0.164560980199E+04    0.24194E-03   -0.10681E-02 15422   0.192E-01    0.592E-02
DAV:   6    -0.164561009706E+04   -0.29507E-03   -0.20762E-03 17176   0.615E-02    0.426E-02
DAV:   7    -0.164561020921E+04   -0.11215E-03   -0.29757E-04 16112   0.241E-02    0.223E-02
DAV:   8    -0.164561028449E+04   -0.75281E-04   -0.91067E-05 14488   0.146E-02    0.105E-02
DAV:   9    -0.164561030549E+04   -0.20998E-04   -0.29584E-05  9192   0.921E-03    0.479E-03
DAV:  10    -0.164561031498E+04   -0.94851E-05   -0.15336E-05  7488   0.551E-03
   3 F= -.16456103E+04 E0= -.16456119E+04  d E =-.883806E-02
       N       E                     dE             d eps       ncg     rms          rms(c)
DAV:   1    -0.164585188867E+04   -0.24158E+00   -0.70142E+00 12465   0.381E+00    0.107E+00
DAV:   2    -0.164580267358E+04    0.49215E-01   -0.11593E-01 15808   0.587E-01    0.564E-01
DAV:   3    -0.164579012380E+04    0.12550E-01   -0.55606E-02 16371   0.414E-01    0.354E-01
DAV:   4    -0.164578221865E+04    0.79051E-02   -0.29773E-02 16064   0.338E-01    0.738E-02
DAV:   5    -0.164578224901E+04   -0.30351E-04   -0.67404E-03 14960   0.137E-01    0.505E-02
DAV:   6    -0.164578232529E+04   -0.76285E-04   -0.94246E-04 16240   0.441E-02    0.340E-02
DAV:   7    -0.164578234968E+04   -0.24387E-04   -0.17164E-04 16224   0.180E-02    0.185E-02
DAV:   8    -0.164578235777E+04   -0.80944E-05   -0.78606E-05 14632   0.136E-02
   4 F= -.16457824E+04 E0= -.16457875E+04  d E =-.172043E+00
       N       E                     dE             d eps       ncg     rms          rms(c)
DAV:   1    -0.164578791463E+04   -0.55649E-02   -0.96847E-01 12515   0.123E+00    0.146E-01
DAV:   2    -0.164578837869E+04   -0.46407E-03   -0.12412E-02 16240   0.200E-01    0.978E-02
DAV:   3    -0.164578810134E+04    0.27735E-03   -0.25457E-03 17914   0.880E-02    0.735E-02
DAV:   4    -0.164578797681E+04    0.12453E-03   -0.66096E-04 17040   0.444E-02    0.298E-02
DAV:   5    -0.164578797152E+04    0.52927E-05   -0.24125E-04 14712   0.232E-02    0.108E-02
DAV:   6    -0.164578796691E+04    0.46018E-05   -0.27213E-05  8872   0.876E-03
   5 F= -.16457880E+04 E0= -.16457931E+04  d E =-.560914E-02
       N       E                     dE             d eps       ncg     rms          rms(c)
DAV:   1    -0.164578916039E+04   -0.11889E-02   -0.21773E-01 12543   0.583E-01    0.665E-02
DAV:   2    -0.164578927836E+04   -0.11797E-03   -0.26266E-03 16056   0.101E-01    0.463E-02
DAV:   3    -0.164578920430E+04    0.74062E-04   -0.57137E-04 18744   0.430E-02    0.349E-02
DAV:   4    -0.164578917077E+04    0.33524E-04   -0.15857E-04 16504   0.210E-02    0.118E-02
DAV:   5    -0.164578916799E+04    0.27852E-05   -0.40404E-05 10576   0.100E-02
   6 F= -.16457892E+04 E0= -.16457943E+04  d E =-.120107E-02
       N       E                     dE             d eps       ncg     rms          rms(c)
DAV:   1    -0.164578955183E+04   -0.38105E-03   -0.11681E-01 12540   0.428E-01    0.482E-02
DAV:   2    -0.164578958928E+04   -0.37448E-04   -0.12917E-03 15664   0.727E-02    0.338E-02
DAV:   3    -0.164578954191E+04    0.47360E-04   -0.28634E-04 18616   0.318E-02    0.253E-02
DAV:   4    -0.164578951276E+04    0.29160E-04   -0.84534E-05 14744   0.159E-02    0.590E-03
DAV:   5    -0.164578951083E+04    0.19230E-05   -0.13476E-05  7688   0.642E-03
   7 F= -.16457895E+04 E0= -.16457947E+04  d E =-.342843E-03
       N       E                     dE             d eps       ncg     rms          rms(c)
DAV:   1    -0.164578949204E+04    0.20715E-04   -0.70378E-03 12680   0.130E-01    0.431E-02
DAV:   2    -0.164578944636E+04    0.45685E-04   -0.12597E-04 15104   0.189E-02    0.217E-02
DAV:   3    -0.164578944848E+04   -0.21271E-05   -0.72711E-05 14880   0.156E-02    0.121E-02
DAV:   4    -0.164578945728E+04   -0.87996E-05   -0.31804E-05  9976   0.126E-02    0.237E-03
DAV:   5    -0.164578946212E+04   -0.48366E-05   -0.10405E-05  6960   0.575E-03
   8 F= -.16457895E+04 E0= -.16457945E+04  d E =0.487135E-04
       N       E                     dE             d eps       ncg     rms          rms(c)
DAV:   1    -0.164578969396E+04   -0.23668E-03   -0.68459E-03 12662   0.116E-01    0.303E-02
DAV:   2    -0.164578963182E+04    0.62144E-04   -0.94061E-05 14936   0.177E-02    0.161E-02
DAV:   3    -0.164578961028E+04    0.21540E-04   -0.37859E-05 10683   0.122E-02    0.102E-02
DAV:   4    -0.164578958837E+04    0.21905E-04   -0.18421E-05  7704   0.903E-03    0.190E-03
DAV:   5    -0.164578958602E+04    0.23556E-05   -0.65194E-06  6728   0.492E-03
   9 F= -.16457896E+04 E0= -.16457947E+04  d E =-.123898E-03
       N       E                     dE             d eps       ncg     rms          rms(c)
DAV:   1    -0.164578960416E+04   -0.15792E-04   -0.23470E-03 12654   0.607E-02    0.686E-03
DAV:   2    -0.164578960409E+04    0.72645E-07   -0.15409E-05  7952   0.740E-03    0.481E-03
DAV:   3    -0.164578960387E+04    0.22337E-06   -0.43252E-06  6787   0.438E-03    0.331E-03
DAV:   4    -0.164578960341E+04    0.46013E-06   -0.31377E-06  6680   0.323E-03    0.535E-04
DAV:   5    -0.164578960362E+04   -0.21297E-06   -0.14075E-06  6680   0.226E-03
  10 F= -.16457896E+04 E0= -.16457948E+04  d E =-.176045E-04
       N       E                     dE             d eps       ncg     rms          rms(c)
DAV:   1    -0.164578961699E+04   -0.13586E-04   -0.24178E-03 12586   0.615E-02    0.659E-03
DAV:   2    -0.164578961790E+04   -0.90800E-06   -0.15709E-05  7696   0.695E-03    0.469E-03
DAV:   3    -0.164578961803E+04   -0.12611E-06   -0.48528E-06  6694   0.412E-03    0.291E-03
DAV:   4    -0.164578961827E+04   -0.24624E-06   -0.31583E-06  6680   0.328E-03    0.544E-04
DAV:   5    -0.164578961839E+04   -0.12039E-06   -0.15509E-06  6667   0.231E-03
  11 F= -.16457896E+04 E0= -.16457948E+04  d E =-.147736E-04
       N       E                     dE             d eps       ncg     rms          rms(c)
DAV:   1    -0.164578962645E+04   -0.81755E-05   -0.71562E-04 12618   0.339E-02    0.453E-03
DAV:   2    -0.164578962427E+04    0.21786E-05   -0.58637E-06  6632   0.407E-03    0.288E-03
DAV:   3    -0.164578962289E+04    0.13838E-05   -0.21889E-06  6632   0.260E-03    0.142E-03
DAV:   4    -0.164578962188E+04    0.10120E-05   -0.12106E-06  6584   0.210E-03    0.443E-04
DAV:   5    -0.164578962185E+04    0.27811E-07   -0.69359E-07  6584   0.151E-03
  12 F= -.16457896E+04 E0= -.16457948E+04  d E =-.345291E-05
       N       E                     dE             d eps       ncg     rms          rms(c)
DAV:   1    -0.164578962541E+04   -0.35345E-05   -0.99220E-04 12576   0.398E-02    0.528E-03
DAV:   2    -0.164578962833E+04   -0.29204E-05   -0.65117E-06  6545   0.425E-03    0.341E-03
DAV:   3    -0.164578963129E+04   -0.29634E-05   -0.28380E-06  6495   0.254E-03    0.788E-04
DAV:   4    -0.164578963202E+04   -0.72654E-06   -0.11748E-06  6506   0.180E-03    0.406E-04
DAV:   5    -0.164578963210E+04   -0.75981E-07   -0.62432E-07  6493   0.135E-03
  13 F= -.16457896E+04 E0= -.16457948E+04  d E =-.102487E-04
       N       E                     dE             d eps       ncg     rms          rms(c)
DAV:   1    -0.164578963621E+04   -0.41850E-05   -0.10090E-04 12362   0.135E-02    0.285E-03
DAV:   2    -0.164578963383E+04    0.23796E-05   -0.12654E-06  6467   0.183E-03    0.156E-03
DAV:   3    -0.164578963196E+04    0.18650E-05   -0.59714E-07  6467   0.128E-03    0.495E-04
DAV:   4    -0.164578963138E+04    0.57950E-06   -0.28099E-07  6467   0.990E-04    0.215E-04
DAV:   5    -0.164578963129E+04    0.92367E-07   -0.15515E-07  6467   0.691E-04
  14 F= -.16457896E+04 E0= -.16457948E+04  d E =0.807449E-06
       N       E                     dE             d eps       ncg     rms          rms(c)
DAV:   1    -0.164578963364E+04   -0.22549E-05   -0.27782E-04 12464   0.209E-02    0.227E-03
DAV:   2    -0.164578963402E+04   -0.38519E-06   -0.17107E-06  6419   0.220E-03    0.161E-03
DAV:   3    -0.164578963442E+04   -0.39740E-06   -0.68267E-07  6414   0.123E-03    0.233E-04
DAV:   4    -0.164578963448E+04   -0.56975E-07   -0.28951E-07  6404   0.858E-04    0.149E-04
DAV:   5    -0.164578963447E+04    0.96588E-09   -0.16333E-07  6404   0.666E-04
  15 F= -.16457896E+04 E0= -.16457948E+04  d E =-.318587E-05
       N       E                     dE             d eps       ncg     rms          rms(c)
DAV:   1    -0.164578963805E+04   -0.35711E-05   -0.13244E-03 12560   0.455E-02    0.473E-03
DAV:   2    -0.164578963893E+04   -0.88030E-06   -0.74326E-06  6524   0.460E-03    0.341E-03
DAV:   3    -0.164578963952E+04   -0.59619E-06   -0.28979E-06  6420   0.251E-03    0.452E-04
DAV:   4    -0.164578963967E+04   -0.14401E-06   -0.11562E-06  6428   0.168E-03    0.301E-04
DAV:   5    -0.164578963969E+04   -0.26494E-07   -0.62844E-07  6420   0.130E-03
  16 F= -.16457896E+04 E0= -.16457948E+04  d E =-.521902E-05
       N       E                     dE             d eps       ncg     rms          rms(c)
DAV:   1    -0.164578964196E+04   -0.22893E-05   -0.41032E-05 10916   0.900E-03    0.233E-03
DAV:   2    -0.164578963984E+04    0.21209E-05   -0.12215E-06  6514   0.190E-03    0.116E-03
DAV:   3    -0.164578963847E+04    0.13669E-05   -0.39103E-07  6404   0.108E-03    0.512E-04
DAV:   4    -0.164578963783E+04    0.64328E-06   -0.18821E-07  6404   0.852E-04    0.188E-04
DAV:   5    -0.164578963763E+04    0.20018E-06   -0.10215E-07  6404   0.545E-04
  17 F= -.16457896E+04 E0= -.16457948E+04  d E =0.206850E-05
       N       E                     dE             d eps       ncg     rms          rms(c)
DAV:   1    -0.164578963714E+04    0.68345E-06   -0.44518E-05 11288   0.887E-03    0.183E-03
DAV:   2    -0.164578963861E+04   -0.14695E-05   -0.79672E-07  6404   0.144E-03    0.981E-04
DAV:   3    -0.164578963970E+04   -0.10931E-05   -0.24389E-07  6404   0.816E-04    0.393E-04
DAV:   4    -0.164578964021E+04   -0.50600E-06   -0.10199E-07  6404   0.611E-04    0.140E-04
DAV:   5    -0.164578964033E+04   -0.12098E-06   -0.49750E-08  6404   0.391E-04
  18 F= -.16457896E+04 E0= -.16457948E+04  d E =-.270631E-05
       N       E                     dE             d eps       ncg     rms          rms(c)
DAV:   1    -0.164578964120E+04   -0.99235E-06   -0.91703E-05 12224   0.120E-02    0.133E-03
DAV:   2    -0.164578964113E+04    0.73147E-07   -0.65204E-07  6380   0.134E-03    0.925E-04
DAV:   3    -0.164578964099E+04    0.14121E-06   -0.23355E-07  6380   0.730E-04    0.144E-04
DAV:   4    -0.164578964098E+04    0.60454E-08   -0.98406E-08  6380   0.509E-04    0.881E-05
DAV:   5    -0.164578964099E+04   -0.11425E-07   -0.54499E-08  6380   0.389E-04
  19 F= -.16457896E+04 E0= -.16457948E+04  d E =-.662399E-06
