       N       E                     dE             d eps       ncg     rms          rms(c)
DAV:   1     0.244507158683E+04    0.24451E+04   -0.30262E+05 12056   0.144E+03
DAV:   2    -0.119976008097E+04   -0.36448E+04   -0.34921E+04 13916   0.321E+02
DAV:   3    -0.166781186857E+04   -0.46805E+03   -0.43928E+03 18480   0.822E+01
DAV:   4    -0.169280425398E+04   -0.24992E+02   -0.23776E+02 16904   0.180E+01
DAV:   5    -0.169384201047E+04   -0.10378E+01   -0.10213E+01 18832   0.398E+00    0.439E+01
DAV:   6    -0.164597205182E+04    0.47870E+02   -0.17363E+02 18264   0.186E+01    0.245E+01
DAV:   7    -0.163097421572E+04    0.14998E+02   -0.10545E+02 19344   0.173E+01    0.177E+01
DAV:   8    -0.161887695223E+04    0.12097E+02   -0.63559E+01 17512   0.122E+01    0.802E+00
DAV:   9    -0.161558930286E+04    0.32876E+01   -0.22589E+01 17016   0.753E+00    0.240E+00
DAV:  10    -0.161565521162E+04   -0.65909E-01   -0.39156E+00 17096   0.285E+00    0.162E+00
DAV:  11    -0.161562089178E+04    0.34320E-01   -0.52318E-01 15712   0.112E+00    0.109E+00
DAV:  12    -0.161558533991E+04    0.35552E-01   -0.18965E-01 14256   0.666E-01    0.486E-01
DAV:  13    -0.161557927612E+04    0.60638E-02   -0.38326E-02 15392   0.319E-01    0.230E-01
DAV:  14    -0.161557787382E+04    0.14023E-02   -0.10583E-02 15040   0.163E-01    0.106E-01
DAV:  15    -0.161557769281E+04    0.18101E-03   -0.30266E-03 15088   0.891E-02    0.579E-02
DAV:  16    -0.161557772248E+04   -0.29671E-04   -0.94166E-04 15680   0.471E-02    0.302E-02
DAV:  17    -0.161557772454E+04   -0.20572E-05   -0.24007E-04 15856   0.272E-02    0.144E-02
DAV:  18    -0.161557771836E+04    0.61799E-05   -0.65850E-05 12736   0.150E-02
   1 F= -.16155777E+04 E0= -.16155761E+04  d E =-.161558E+04
       N       E                     dE             d eps       ncg     rms          rms(c)
DAV:   1    -0.161739602504E+04   -0.18183E+01   -0.66347E+02 12040   0.372E+01    0.121E+01
DAV:   2    -0.161113084928E+04    0.62652E+01   -0.26091E+01 16792   0.745E+00    0.632E+00
DAV:   3    -0.160947291812E+04    0.16579E+01   -0.12526E+01 18216   0.553E+00    0.452E+00
DAV:   4    -0.160850423982E+04    0.96868E+00   -0.44306E+00 18472   0.366E+00    0.266E+00
DAV:   5    -0.160813160677E+04    0.37263E+00   -0.25351E+00 16176   0.239E+00    0.797E-01
DAV:   6    -0.160812915647E+04    0.24503E-02   -0.38725E-01 15256   0.947E-01    0.547E-01
DAV:   7    -0.160812774088E+04    0.14156E-02   -0.65762E-02 15208   0.399E-01    0.381E-01
DAV:   8    -0.160812804143E+04   -0.30055E-03   -0.28069E-02 16568   0.221E-01    0.188E-01
DAV:   9    -0.160812937495E+04   -0.13335E-02   -0.11013E-02 14544   0.141E-01    0.131E-01
DAV:  10    -0.160812867820E+04    0.69675E-03   -0.26078E-03 14776   0.812E-02    0.707E-02
DAV:  11    -0.160812851174E+04    0.16646E-03   -0.12822E-03 17256   0.504E-02    0.346E-02
DAV:  12    -0.160812856346E+04   -0.51728E-04   -0.70272E-04 17720   0.334E-02    0.312E-02
DAV:  13    -0.160812855518E+04    0.82819E-05   -0.11504E-04 14968   0.173E-02    0.163E-02
DAV:  14    -0.160812855434E+04    0.83728E-06   -0.63242E-05 12104   0.105E-02
   2 F= -.16081286E+04 E0= -.16081241E+04  d E =0.744916E+01
       N       E                     dE             d eps       ncg     rms          rms(c)
DAV:   1    -0.162271256504E+04   -0.14584E+02   -0.25004E+02 12040   0.258E+01    0.877E+00
DAV:   2    -0.161912225305E+04    0.35903E+01   -0.71786E+00 14782   0.429E+00    0.421E+00
DAV:   3    -0.161847259954E+04    0.64965E+00   -0.35356E+00 15752   0.308E+00    0.281E+00
DAV:   4    -0.161801519939E+04    0.45740E+00   -0.16461E+00 16504   0.254E+00    0.125E+00
DAV:   5    -0.161793695547E+04    0.78244E-01   -0.74051E-01 15448   0.139E+00    0.399E-01
DAV:   6    -0.161793954770E+04   -0.25922E-02   -0.10623E-01 14456   0.519E-01    0.285E-01
DAV:   7    -0.161794033804E+04   -0.79034E-03   -0.17382E-02 15656   0.203E-01    0.187E-01
DAV:   8    -0.161794197822E+04   -0.16402E-02   -0.90627E-03 15936   0.124E-01    0.894E-02
DAV:   9    -0.161794249193E+04   -0.51372E-03   -0.20956E-03 13800   0.715E-02    0.572E-02
DAV:  10    -0.161794251954E+04   -0.27607E-04   -0.10918E-03 16656   0.451E-02    0.274E-02
DAV:  11    -0.161794261986E+04   -0.10032E-03   -0.24282E-04 16184   0.242E-02    0.262E-02
DAV:  12    -0.161794265698E+04   -0.37129E-04   -0.84207E-05 13832   0.140E-02    0.129E-02
DAV:  13    -0.161794264638E+04    0.10600E-04   -0.29909E-05  7760   0.770E-03    0.379E-03
DAV:  14    -0.161794264264E+04    0.37468E-05   -0.11090E-05  7064   0.530E-03
   3 F= -.16179426E+04 E0= -.16179456E+04  d E =-.981409E+01
       N       E                     dE             d eps       ncg     rms          rms(c)
DAV:   1    -0.161801722291E+04   -0.74577E-01   -0.12905E+01 12040   0.456E+00    0.579E-01
DAV:   2    -0.161803040749E+04   -0.13185E-01   -0.23832E-01 17288   0.816E-01    0.464E-01
DAV:   3    -0.161801810399E+04    0.12304E-01   -0.67800E-02 18000   0.454E-01    0.289E-01
DAV:   4    -0.161801627774E+04    0.18263E-02   -0.11488E-02 17688   0.165E-01    0.181E-01
DAV:   5    -0.161801536325E+04    0.91449E-03   -0.65643E-03 15640   0.124E-01    0.556E-02
DAV:   6    -0.161801527627E+04    0.86973E-04   -0.13092E-03 16024   0.651E-02    0.372E-02
DAV:   7    -0.161801523718E+04    0.39093E-04   -0.26416E-04 15960   0.278E-02    0.228E-02
DAV:   8    -0.161801522992E+04    0.72592E-05   -0.88295E-05 13848   0.128E-02
   4 F= -.16180152E+04 E0= -.16180187E+04  d E =-.725873E-01
       N       E                     dE             d eps       ncg     rms          rms(c)
DAV:   1    -0.161802800849E+04   -0.12771E-01   -0.19666E+00 12058   0.179E+00    0.206E-01
DAV:   2    -0.161803015968E+04   -0.21512E-02   -0.28513E-02 16440   0.321E-01    0.182E-01
DAV:   3    -0.161802798176E+04    0.21779E-02   -0.91408E-03 17818   0.175E-01    0.109E-01
DAV:   4    -0.161802772600E+04    0.25576E-03   -0.16784E-03 16304   0.623E-02    0.539E-02
DAV:   5    -0.161802767771E+04    0.48290E-04   -0.75938E-04 15256   0.441E-02    0.188E-02
DAV:   6    -0.161802766552E+04    0.12195E-04   -0.15047E-04 15336   0.225E-02    0.119E-02
DAV:   7    -0.161802765771E+04    0.78078E-05   -0.24975E-05  8160   0.917E-03
   5 F= -.16180277E+04 E0= -.16180312E+04  d E =-.124278E-01
       N       E                     dE             d eps       ncg     rms          rms(c)
DAV:   1    -0.161803121562E+04   -0.35501E-02   -0.34435E-01 12172   0.818E-01    0.203E-01
DAV:   2    -0.161802990658E+04    0.13090E-02   -0.83258E-03 16688   0.173E-01    0.128E-01
DAV:   3    -0.161802896386E+04    0.94272E-03   -0.43836E-03 17456   0.119E-01    0.833E-02
DAV:   4    -0.161802852703E+04    0.43683E-03   -0.12059E-03 16000   0.590E-02    0.335E-02
DAV:   5    -0.161802842664E+04    0.10039E-03   -0.45227E-04 15136   0.341E-02    0.123E-02
DAV:   6    -0.161802841761E+04    0.90285E-05   -0.81212E-05 14064   0.166E-02
   6 F= -.16180284E+04 E0= -.16180323E+04  d E =-.759897E-03
       N       E                     dE             d eps       ncg     rms          rms(c)
DAV:   1    -0.161803274626E+04   -0.43196E-02   -0.15406E-01 12196   0.554E-01    0.140E-01
DAV:   2    -0.161803208268E+04    0.66358E-03   -0.24173E-03 15328   0.795E-02    0.725E-02
DAV:   3    -0.161803198429E+04    0.98388E-04   -0.10821E-03 16640   0.558E-02    0.519E-02
DAV:   4    -0.161803188341E+04    0.10088E-03   -0.50623E-04 16408   0.417E-02    0.209E-02
DAV:   5    -0.161803189966E+04   -0.16246E-04   -0.19175E-04 14856   0.216E-02    0.775E-03
DAV:   6    -0.161803190070E+04   -0.10419E-05   -0.20755E-05  7544   0.797E-03
   7 F= -.16180319E+04 E0= -.16180357E+04  d E =-.348309E-02
       N       E                     dE             d eps       ncg     rms          rms(c)
DAV:   1    -0.161803285528E+04   -0.95562E-03   -0.10914E-01 12154   0.421E-01    0.542E-02
DAV:   2    -0.161803296907E+04   -0.11380E-03   -0.17595E-03 16672   0.838E-02    0.495E-02
DAV:   3    -0.161803277851E+04    0.19057E-03   -0.65381E-04 17100   0.478E-02    0.270E-02
DAV:   4    -0.161803274797E+04    0.30534E-04   -0.10517E-04 14376   0.161E-02    0.123E-02
DAV:   5    -0.161803273655E+04    0.11422E-04   -0.32379E-05  9288   0.114E-02    0.409E-03
DAV:   6    -0.161803273618E+04    0.37392E-06   -0.86287E-06  6984   0.715E-03
   8 F= -.16180327E+04 E0= -.16180366E+04  d E =-.835478E-03
       N       E                     dE             d eps       ncg     rms          rms(c)
DAV:   1    -0.161803302605E+04   -0.28950E-03   -0.47312E-02 12190   0.281E-01    0.398E-02
DAV:   2    -0.161803306035E+04   -0.34297E-04   -0.59922E-04 16168   0.453E-02    0.295E-02
DAV:   3    -0.161803302279E+04    0.37563E-04   -0.20976E-04 17412   0.261E-02    0.196E-02
DAV:   4    -0.161803302675E+04   -0.39694E-05   -0.52009E-05 12240   0.113E-02    0.669E-03
DAV:   5    -0.161803303285E+04   -0.60903E-05   -0.11802E-05  6976   0.701E-03
   9 F= -.16180330E+04 E0= -.16180368E+04  d E =-.296669E-03
       N       E                     dE             d eps       ncg     rms          rms(c)
DAV:   1    -0.161803323892E+04   -0.21216E-03   -0.46358E-03 12208   0.103E-01    0.325E-02
DAV:   2    -0.161803316671E+04    0.72202E-04   -0.12683E-04 15312   0.191E-02    0.171E-02
DAV:   3    -0.161803314621E+04    0.20506E-04   -0.62908E-05 12448   0.146E-02    0.119E-02
DAV:   4    -0.161803312386E+04    0.22349E-04   -0.19663E-05  8616   0.975E-03    0.473E-03
DAV:   5    -0.161803311454E+04    0.93149E-05   -0.10308E-05  6472   0.534E-03
  10 F= -.16180331E+04 E0= -.16180370E+04  d E =-.816989E-04
       N       E                     dE             d eps       ncg     rms          rms(c)
DAV:   1    -0.161803323416E+04   -0.11030E-03   -0.13487E-02 12196   0.148E-01    0.172E-02
DAV:   2    -0.161803324972E+04   -0.15567E-04   -0.14858E-04 15792   0.218E-02    0.140E-02
DAV:   3    -0.161803324120E+04    0.85202E-05   -0.35738E-05 10298   0.118E-02    0.942E-03
DAV:   4    -0.161803324590E+04   -0.46924E-05   -0.16536E-05  6688   0.626E-03    0.197E-03
DAV:   5    -0.161803324688E+04   -0.98242E-06   -0.43659E-06  6464   0.442E-03
  11 F= -.16180332E+04 E0= -.16180371E+04  d E =-.132334E-03
       N       E                     dE             d eps       ncg     rms          rms(c)
DAV:   1    -0.161803332547E+04   -0.79580E-04   -0.98194E-03 12208   0.126E-01    0.148E-02
DAV:   2    -0.161803332586E+04   -0.38931E-06   -0.10899E-04 15336   0.188E-02    0.122E-02
DAV:   3    -0.161803331677E+04    0.90957E-05   -0.31397E-05  9864   0.110E-02    0.795E-03
DAV:   4    -0.161803331079E+04    0.59782E-05   -0.11780E-05  6480   0.545E-03    0.255E-03
DAV:   5    -0.161803330933E+04    0.14620E-05   -0.39880E-06  6464   0.404E-03
  12 F= -.16180333E+04 E0= -.16180372E+04  d E =-.624505E-04
       N       E                     dE             d eps       ncg     rms          rms(c)
DAV:   1    -0.161803332183E+04   -0.11042E-04   -0.79665E-04 12208   0.404E-02    0.108E-02
DAV:   2    -0.161803332625E+04   -0.44193E-05   -0.10975E-05  6392   0.545E-03    0.540E-03
DAV:   3    -0.161803333131E+04   -0.50590E-05   -0.52374E-06  6392   0.389E-03    0.231E-03
DAV:   4    -0.161803333498E+04   -0.36700E-05   -0.21960E-06  6272   0.292E-03    0.891E-04
DAV:   5    -0.161803333586E+04   -0.87679E-06   -0.95731E-07  6272   0.208E-03
  13 F= -.16180333E+04 E0= -.16180372E+04  d E =-.265287E-04
       N       E                     dE             d eps       ncg     rms          rms(c)
DAV:   1    -0.161803337994E+04   -0.44955E-04   -0.34008E-03 12196   0.746E-02    0.930E-03
DAV:   2    -0.161803337492E+04    0.50131E-05   -0.24310E-05  8888   0.926E-03    0.638E-03
DAV:   3    -0.161803337274E+04    0.21871E-05   -0.80964E-06  7026   0.645E-03    0.463E-03
DAV:   4    -0.161803336867E+04    0.40674E-05   -0.47215E-06  6272   0.395E-03    0.147E-03
DAV:   5    -0.161803336783E+04    0.83851E-06   -0.22755E-06  6272   0.292E-03
  14 F= -.16180334E+04 E0= -.16180372E+04  d E =-.319723E-04
       N       E                     dE             d eps       ncg     rms          rms(c)
DAV:   1    -0.161803339406E+04   -0.25391E-04   -0.32689E-03 12196   0.725E-02    0.754E-03
DAV:   2    -0.161803339692E+04   -0.28622E-05   -0.20727E-05  7304   0.766E-03    0.547E-03
DAV:   3    -0.161803339770E+04   -0.77983E-06   -0.71685E-06  6448   0.492E-03    0.394E-03
DAV:   4    -0.161803339970E+04   -0.20011E-05   -0.48490E-06  6272   0.386E-03    0.631E-04
DAV:   5    -0.161803339981E+04   -0.11269E-06   -0.22586E-06  6272   0.280E-03
  15 F= -.16180334E+04 E0= -.16180372E+04  d E =-.319850E-04
       N       E                     dE             d eps       ncg     rms          rms(c)
DAV:   1    -0.161803341753E+04   -0.17831E-04   -0.84866E-04 12208   0.381E-02    0.648E-03
DAV:   2    -0.161803341159E+04    0.59436E-05   -0.83166E-06  6272   0.498E-03    0.373E-03
DAV:   3    -0.161803340954E+04    0.20510E-05   -0.35313E-06  6272   0.391E-03    0.256E-03
DAV:   4    -0.161803340676E+04    0.27726E-05   -0.19543E-06  6272   0.285E-03    0.995E-04
DAV:   5    -0.161803340571E+04    0.10564E-05   -0.11376E-06  6272   0.191E-03
  16 F= -.16180334E+04 E0= -.16180373E+04  d E =-.589427E-05
       N       E                     dE             d eps       ncg     rms          rms(c)
DAV:   1    -0.161803341726E+04   -0.10491E-04   -0.88714E-04 12208   0.382E-02    0.513E-03
DAV:   2    -0.161803342002E+04   -0.27652E-05   -0.63095E-06  6272   0.403E-03    0.324E-03
DAV:   3    -0.161803342221E+04   -0.21920E-05   -0.26420E-06  6272   0.253E-03    0.129E-03
DAV:   4    -0.161803342359E+04   -0.13727E-05   -0.13092E-06  6272   0.197E-03    0.557E-04
DAV:   5    -0.161803342379E+04   -0.20668E-06   -0.70445E-07  6272   0.159E-03
  17 F= -.16180334E+04 E0= -.16180373E+04  d E =-.180843E-04
       N       E                     dE             d eps       ncg     rms          rms(c)
DAV:   1    -0.161803344052E+04   -0.16930E-04   -0.17540E-03 12196   0.531E-02    0.535E-03
DAV:   2    -0.161803344000E+04    0.52089E-06   -0.10434E-05  7240   0.527E-03    0.389E-03
DAV:   3    -0.161803343959E+04    0.40927E-06   -0.37229E-06  6330   0.321E-03    0.249E-03
DAV:   4    -0.161803343870E+04    0.88765E-06   -0.23518E-06  6272   0.273E-03    0.495E-04
DAV:   5    -0.161803343888E+04   -0.18337E-06   -0.11543E-06  6272   0.193E-03
  18 F= -.16180334E+04 E0= -.16180373E+04  d E =-.150894E-04
       N       E                     dE             d eps       ncg     rms          rms(c)
DAV:   1    -0.161803344932E+04   -0.10620E-04   -0.20604E-03 12196   0.580E-02    0.693E-03
DAV:   2    -0.161803345295E+04   -0.36313E-05   -0.13385E-05  7192   0.588E-03    0.453E-03
DAV:   3    -0.161803345564E+04   -0.26874E-05   -0.52996E-06  6312   0.345E-03    0.186E-03
DAV:   4    -0.161803345746E+04   -0.18206E-05   -0.26473E-06  6272   0.266E-03    0.837E-04
DAV:   5    -0.161803345776E+04   -0.29857E-06   -0.14243E-06  6272   0.212E-03
  19 F= -.16180335E+04 E0= -.16180373E+04  d E =-.188750E-04
       N       E                     dE             d eps       ncg     rms          rms(c)
DAV:   1    -0.161803346457E+04   -0.71100E-05   -0.60567E-05 11680   0.125E-02    0.439E-03
DAV:   2    -0.161803345974E+04    0.48332E-05   -0.18767E-06  6272   0.235E-03    0.208E-03
DAV:   3    -0.161803345764E+04    0.20908E-05   -0.85803E-07  6272   0.190E-03    0.131E-03
DAV:   4    -0.161803345604E+04    0.16094E-05   -0.41912E-07  6272   0.145E-03    0.498E-04
DAV:   5    -0.161803345514E+04    0.89110E-06   -0.23398E-07  6272   0.827E-04
  20 F= -.16180335E+04 E0= -.16180373E+04  d E =0.261299E-05
       N       E                     dE             d eps       ncg     rms          rms(c)
DAV:   1    -0.161803346440E+04   -0.83674E-05   -0.10574E-03 12184   0.412E-02    0.399E-03
DAV:   2    -0.161803346485E+04   -0.44428E-06   -0.57367E-06  6272   0.386E-03    0.293E-03
DAV:   3    -0.161803346502E+04   -0.17763E-06   -0.22224E-06  6260   0.225E-03    0.823E-04
DAV:   4    -0.161803346519E+04   -0.16964E-06   -0.10456E-06  6272   0.183E-03    0.466E-04
DAV:   5    -0.161803346521E+04   -0.12784E-07   -0.56859E-07  6260   0.131E-03
  21 F= -.16180335E+04 E0= -.16180373E+04  d E =-.100628E-04
       N       E                     dE             d eps       ncg     rms          rms(c)
DAV:   1    -0.161803348928E+04   -0.24087E-04   -0.13607E-02 12148   0.148E-01    0.142E-02
DAV:   2    -0.161803349414E+04   -0.48561E-05   -0.11309E-04 16176   0.138E-02    0.109E-02
DAV:   3    -0.161803349040E+04    0.37399E-05   -0.96677E-06  7054   0.539E-03    0.530E-03
DAV:   4    -0.161803348845E+04    0.19516E-05   -0.53345E-06  6496   0.493E-03    0.175E-03
DAV:   5    -0.161803348847E+04   -0.29355E-07   -0.14117E-06  6290   0.290E-03
  22 F= -.16180335E+04 E0= -.16180373E+04  d E =-.232677E-04
       N       E                     dE             d eps       ncg     rms          rms(c)
DAV:   1    -0.161803347307E+04    0.15374E-04   -0.41842E-03 12160   0.826E-02    0.939E-03
DAV:   2    -0.161803347669E+04   -0.36161E-05   -0.21447E-05  6904   0.771E-03    0.628E-03
DAV:   3    -0.161803347868E+04   -0.19941E-05   -0.70174E-06  6266   0.438E-03    0.354E-03
DAV:   4    -0.161803348089E+04   -0.22074E-05   -0.36731E-06  6272   0.366E-03    0.108E-03
DAV:   5    -0.161803348141E+04   -0.52359E-06   -0.17835E-06  6272   0.250E-03
  23 F= -.16180335E+04 E0= -.16180373E+04  d E =0.706166E-05
       N       E                     dE             d eps       ncg     rms          rms(c)
DAV:   1    -0.161803349605E+04   -0.15157E-04   -0.35152E-03 12160   0.754E-02    0.731E-03
DAV:   2    -0.161803349459E+04    0.14520E-05   -0.16053E-05  6368   0.659E-03    0.523E-03
DAV:   3    -0.161803349279E+04    0.17999E-05   -0.49152E-06  6260   0.338E-03    0.225E-03
DAV:   4    -0.161803349182E+04    0.97450E-06   -0.23645E-06  6272   0.276E-03    0.695E-04
DAV:   5    -0.161803349198E+04   -0.16509E-06   -0.10971E-06  6272   0.190E-03
  24 F= -.16180335E+04 E0= -.16180373E+04  d E =-.105720E-04
       N       E                     dE             d eps       ncg     rms          rms(c)
DAV:   1    -0.161803349723E+04   -0.54126E-05   -0.15587E-03 12172   0.500E-02    0.483E-03
DAV:   2    -0.161803349783E+04   -0.59780E-06   -0.93355E-06  6368   0.489E-03    0.358E-03
DAV:   3    -0.161803349792E+04   -0.89434E-07   -0.39409E-06  6266   0.289E-03    0.636E-04
DAV:   4    -0.161803349812E+04   -0.19557E-06   -0.17602E-06  6272   0.214E-03    0.503E-04
DAV:   5    -0.161803349818E+04   -0.62515E-07   -0.97960E-07  6272   0.167E-03
  25 F= -.16180335E+04 E0= -.16180374E+04  d E =-.619283E-05
       N       E                     dE             d eps       ncg     rms          rms(c)
DAV:   1    -0.161803350320E+04   -0.50889E-05   -0.28996E-04 12080   0.228E-02    0.458E-03
DAV:   2    -0.161803349869E+04    0.45175E-05   -0.34015E-06  6272   0.306E-03    0.243E-03
DAV:   3    -0.161803349675E+04    0.19400E-05   -0.14874E-06  6260   0.233E-03    0.151E-03
DAV:   4    -0.161803349508E+04    0.16632E-05   -0.75641E-07  6254   0.179E-03    0.644E-04
DAV:   5    -0.161803349426E+04    0.82684E-06   -0.44142E-07  6254   0.118E-03
  26 F= -.16180335E+04 E0= -.16180374E+04  d E =0.392119E-05
       N       E                     dE             d eps       ncg     rms          rms(c)
DAV:   1    -0.161803349319E+04    0.18912E-05   -0.32600E-05  7504   0.938E-03    0.288E-03
DAV:   2    -0.161803349567E+04   -0.24809E-05   -0.18260E-06  6272   0.313E-03    0.147E-03
DAV:   3    -0.161803349706E+04   -0.13910E-05   -0.25453E-07  6272   0.117E-03    0.102E-03
DAV:   4    -0.161803349829E+04   -0.12274E-05   -0.15627E-07  6272   0.998E-04    0.374E-04
DAV:   5    -0.161803349900E+04   -0.70661E-06   -0.93420E-08  6260   0.480E-04
  27 F= -.16180335E+04 E0= -.16180374E+04  d E =-.474156E-05
       N       E                     dE             d eps       ncg     rms          rms(c)
DAV:   1    -0.161803350018E+04   -0.18888E-05   -0.14146E-04 11936   0.151E-02    0.145E-03
DAV:   2    -0.161803350032E+04   -0.14223E-06   -0.85370E-07  6236   0.148E-03    0.106E-03
DAV:   3    -0.161803350041E+04   -0.91443E-07   -0.32547E-07  6236   0.831E-04    0.249E-04
DAV:   4    -0.161803350045E+04   -0.34163E-07   -0.14686E-07  6236   0.636E-04    0.165E-04
DAV:   5    -0.161803350044E+04    0.10190E-07   -0.81174E-08  6236   0.469E-04
  28 F= -.16180335E+04 E0= -.16180374E+04  d E =-.143989E-05
       N       E                     dE             d eps       ncg     rms          rms(c)
DAV:   1    -0.161803350430E+04   -0.38536E-05   -0.17369E-03 12148   0.529E-02    0.515E-03
DAV:   2    -0.161803350356E+04    0.74077E-06   -0.92897E-06  6244   0.493E-03    0.374E-03
DAV:   3    -0.161803350240E+04    0.11619E-05   -0.34358E-06  6218   0.275E-03    0.115E-03
DAV:   4    -0.161803350207E+04    0.33308E-06   -0.16172E-06  6236   0.220E-03    0.525E-04
DAV:   5    -0.161803350222E+04   -0.15083E-06   -0.85769E-07  6236   0.164E-03
  29 F= -.16180335E+04 E0= -.16180374E+04  d E =-.177885E-05
