       N       E                     dE             d eps       ncg     rms          rms(c)
DAV:   1     0.205563541751E+04    0.20556E+04   -0.28284E+05 11368   0.143E+03
DAV:   2    -0.119139503594E+04   -0.32470E+04   -0.31205E+04 13180   0.280E+02
DAV:   3    -0.159975437276E+04   -0.40836E+03   -0.37395E+03 17672   0.820E+01
DAV:   4    -0.162472687933E+04   -0.24973E+02   -0.22857E+02 16048   0.168E+01
DAV:   5    -0.162584458454E+04   -0.11177E+01   -0.10936E+01 17280   0.437E+00    0.396E+01
DAV:   6    -0.158748482063E+04    0.38360E+02   -0.13290E+02 17872   0.161E+01    0.230E+01
DAV:   7    -0.157534167491E+04    0.12143E+02   -0.10281E+02 18040   0.166E+01    0.175E+01
DAV:   8    -0.156633419576E+04    0.90075E+01   -0.62939E+01 17040   0.120E+01    0.110E+01
DAV:   9    -0.155972222422E+04    0.66120E+01   -0.26445E+01 16216   0.835E+00    0.333E+00
DAV:  10    -0.155959083279E+04    0.13139E+00   -0.59094E+00 16434   0.329E+00    0.150E+00
DAV:  11    -0.155959931229E+04   -0.84795E-02   -0.69300E-01 15344   0.123E+00    0.113E+00
DAV:  12    -0.155957519460E+04    0.24118E-01   -0.20824E-01 15112   0.712E-01    0.713E-01
DAV:  13    -0.155956128109E+04    0.13914E-01   -0.75153E-02 14960   0.447E-01    0.399E-01
DAV:  14    -0.155955604897E+04    0.52321E-02   -0.24647E-02 15880   0.246E-01    0.214E-01
DAV:  15    -0.155955451123E+04    0.15377E-02   -0.96812E-03 16000   0.153E-01    0.101E-01
DAV:  16    -0.155955437191E+04    0.13932E-03   -0.35450E-03 16080   0.860E-02    0.476E-02
DAV:  17    -0.155955436760E+04    0.43029E-05   -0.78742E-04 14120   0.410E-02    0.268E-02
DAV:  18    -0.155955435438E+04    0.13222E-04   -0.17634E-04 15096   0.221E-02    0.178E-02
DAV:  19    -0.155955433752E+04    0.16858E-04   -0.63854E-05 11360   0.141E-02    0.926E-03
DAV:  20    -0.155955433085E+04    0.66727E-05   -0.20826E-05  7232   0.794E-03
   1 F= -.15595543E+04 E0= -.15595506E+04  d E =-.155955E+04
       N       E                     dE             d eps       ncg     rms          rms(c)
DAV:   1    -0.156484832667E+04   -0.52940E+01   -0.21368E+03 11368   0.710E+01    0.255E+01
DAV:   2    -0.154161965177E+04    0.23229E+02   -0.14495E+02 18440   0.168E+01    0.165E+01
DAV:   3    -0.153409045114E+04    0.75292E+01   -0.83503E+01 18944   0.132E+01    0.123E+01
DAV:   4    -0.152840766657E+04    0.56828E+01   -0.34625E+01 19960   0.838E+00    0.857E+00
DAV:   5    -0.152550606709E+04    0.29016E+01   -0.21419E+01 17736   0.570E+00    0.398E+00
DAV:   6    -0.152500519123E+04    0.50088E+00   -0.58865E+00 17952   0.324E+00    0.230E+00
DAV:   7    -0.152488509336E+04    0.12010E+00   -0.10985E+00 16256   0.151E+00    0.159E+00
DAV:   8    -0.152484808260E+04    0.37011E-01   -0.34850E-01 17504   0.667E-01    0.812E-01
DAV:   9    -0.152484929929E+04   -0.12167E-02   -0.16653E-01 17816   0.420E-01    0.414E-01
DAV:  10    -0.152485150378E+04   -0.22045E-02   -0.44697E-02 17616   0.311E-01    0.353E-01
DAV:  11    -0.152484688481E+04    0.46190E-02   -0.19233E-02 17960   0.201E-01    0.165E-01
DAV:  12    -0.152484667329E+04    0.21152E-03   -0.89027E-03 17960   0.108E-01    0.831E-02
DAV:  13    -0.152484712785E+04   -0.45455E-03   -0.19792E-03 16536   0.532E-02    0.462E-02
DAV:  14    -0.152484730265E+04   -0.17481E-03   -0.74694E-04 16568   0.368E-02    0.346E-02
DAV:  15    -0.152484727783E+04    0.24826E-04   -0.21209E-04 15632   0.233E-02    0.217E-02
DAV:  16    -0.152484726873E+04    0.90968E-05   -0.94446E-05 13360   0.131E-02
   2 F= -.15248473E+04 E0= -.15248578E+04  d E =0.347071E+02
       N       E                     dE             d eps       ncg     rms          rms(c)
DAV:   1    -0.158647250587E+04   -0.61625E+02   -0.10561E+03 11368   0.551E+01    0.178E+01
DAV:   2    -0.157356992987E+04    0.12903E+02   -0.41114E+01 17056   0.104E+01    0.898E+00
DAV:   3    -0.157116394270E+04    0.24060E+01   -0.24322E+01 17784   0.767E+00    0.711E+00
DAV:   4    -0.156904488386E+04    0.21191E+01   -0.10457E+01 17824   0.534E+00    0.440E+00
DAV:   5    -0.156805784527E+04    0.98704E+00   -0.55654E+00 16328   0.358E+00    0.156E+00
DAV:   6    -0.156799787671E+04    0.59969E-01   -0.12564E+00 15432   0.162E+00    0.845E-01
DAV:   7    -0.156800213614E+04   -0.42594E-02   -0.19258E-01 14944   0.665E-01    0.654E-01
DAV:   8    -0.156800483113E+04   -0.26950E-02   -0.52852E-02 15656   0.305E-01    0.350E-01
DAV:   9    -0.156801652076E+04   -0.11690E-01   -0.45279E-02 16400   0.247E-01    0.241E-01
DAV:  10    -0.156801652903E+04   -0.82734E-05   -0.90514E-03 16240   0.166E-01    0.169E-01
DAV:  11    -0.156801575600E+04    0.77303E-03   -0.50520E-03 17608   0.101E-01    0.714E-02
DAV:  12    -0.156801598241E+04   -0.22641E-03   -0.20957E-03 16744   0.572E-02    0.461E-02
DAV:  13    -0.156801626464E+04   -0.28224E-03   -0.53514E-04 14056   0.319E-02    0.255E-02
DAV:  14    -0.156801627564E+04   -0.10993E-04   -0.12084E-04 13584   0.173E-02    0.138E-02
DAV:  15    -0.156801627036E+04    0.52738E-05   -0.32613E-05  7600   0.933E-03
   3 F= -.15680163E+04 E0= -.15680145E+04  d E =-.431690E+02
       N       E                     dE             d eps       ncg     rms          rms(c)
DAV:   1    -0.156831734474E+04   -0.30107E+00   -0.24458E+01 11368   0.677E+00    0.102E+00
DAV:   2    -0.156831822326E+04   -0.87852E-03   -0.40098E-01 16640   0.831E-01    0.723E-01
DAV:   3    -0.156830238550E+04    0.15838E-01   -0.11547E-01 18384   0.558E-01    0.514E-01
DAV:   4    -0.156829250628E+04    0.98792E-02   -0.38959E-02 16184   0.304E-01    0.278E-01
DAV:   5    -0.156829001076E+04    0.24955E-02   -0.20251E-02 15184   0.215E-01    0.128E-01
DAV:   6    -0.156828963456E+04    0.37620E-03   -0.56039E-03 15608   0.128E-01    0.788E-02
DAV:   7    -0.156828950724E+04    0.12732E-03   -0.16419E-03 15848   0.656E-02    0.519E-02
DAV:   8    -0.156828947416E+04    0.33078E-04   -0.45680E-04 15160   0.313E-02    0.305E-02
DAV:   9    -0.156828948374E+04   -0.95760E-05   -0.17845E-04 16104   0.209E-02    0.219E-02
DAV:  10    -0.156828948012E+04    0.36133E-05   -0.86195E-05 13920   0.154E-02
   4 F= -.15682895E+04 E0= -.15682904E+04  d E =-.273210E+00
       N       E                     dE             d eps       ncg     rms          rms(c)
DAV:   1    -0.156834368324E+04   -0.54200E-01   -0.47795E+00 11368   0.291E+00    0.446E-01
DAV:   2    -0.156835298263E+04   -0.92994E-02   -0.12721E-01 18256   0.562E-01    0.455E-01
DAV:   3    -0.156834005456E+04    0.12928E-01   -0.52058E-02 18368   0.381E-01    0.216E-01
DAV:   4    -0.156833860887E+04    0.14457E-02   -0.83211E-03 16392   0.132E-01    0.146E-01
DAV:   5    -0.156833798358E+04    0.62529E-03   -0.38265E-03 15928   0.953E-02    0.834E-02
DAV:   6    -0.156833778507E+04    0.19851E-03   -0.17706E-03 15832   0.698E-02    0.502E-02
DAV:   7    -0.156833767089E+04    0.11418E-03   -0.60978E-04 15568   0.399E-02    0.251E-02
DAV:   8    -0.156833767236E+04   -0.14682E-05   -0.13963E-04 14264   0.166E-02    0.165E-02
DAV:   9    -0.156833767314E+04   -0.77880E-06   -0.36642E-05  8712   0.109E-02
   5 F= -.15683377E+04 E0= -.15683375E+04  d E =-.481930E-01
       N       E                     dE             d eps       ncg     rms          rms(c)
DAV:   1    -0.156835643355E+04   -0.18761E-01   -0.19369E+00 11380   0.187E+00    0.247E-01
DAV:   2    -0.156835908168E+04   -0.26481E-02   -0.32786E-02 17440   0.268E-01    0.240E-01
DAV:   3    -0.156835613536E+04    0.29463E-02   -0.11654E-02 18184   0.182E-01    0.130E-01
DAV:   4    -0.156835578133E+04    0.35403E-03   -0.25708E-03 16032   0.740E-02    0.790E-02
DAV:   5    -0.156835562602E+04    0.15532E-03   -0.14096E-03 15384   0.582E-02    0.356E-02
DAV:   6    -0.156835560862E+04    0.17396E-04   -0.44955E-04 16080   0.364E-02    0.223E-02
DAV:   7    -0.156835559244E+04    0.16180E-04   -0.13240E-04 14600   0.186E-02    0.127E-02
DAV:   8    -0.156835558750E+04    0.49448E-05   -0.26069E-05  7456   0.889E-03
   6 F= -.15683556E+04 E0= -.15683559E+04  d E =-.179144E-01
       N       E                     dE             d eps       ncg     rms          rms(c)
DAV:   1    -0.156836659847E+04   -0.11006E-01   -0.54340E-01 11464   0.102E+00    0.216E-01
DAV:   2    -0.156836675861E+04   -0.16014E-03   -0.17935E-02 18208   0.222E-01    0.187E-01
DAV:   3    -0.156836467695E+04    0.20817E-02   -0.91307E-03 18440   0.160E-01    0.983E-02
DAV:   4    -0.156836426879E+04    0.40817E-03   -0.18638E-03 16080   0.627E-02    0.619E-02
DAV:   5    -0.156836407823E+04    0.19056E-03   -0.86782E-04 15696   0.470E-02    0.331E-02
DAV:   6    -0.156836401743E+04    0.60803E-04   -0.33923E-04 15792   0.311E-02    0.195E-02
DAV:   7    -0.156836399800E+04    0.19422E-04   -0.97321E-05 13688   0.161E-02    0.108E-02
DAV:   8    -0.156836400019E+04   -0.21887E-05   -0.20188E-05  6840   0.744E-03
   7 F= -.15683640E+04 E0= -.15683637E+04  d E =-.841270E-02
       N       E                     dE             d eps       ncg     rms          rms(c)
DAV:   1    -0.156836978930E+04   -0.57913E-02   -0.53456E-01 11380   0.969E-01    0.116E-01
DAV:   2    -0.156837092216E+04   -0.11329E-02   -0.92107E-03 17664   0.150E-01    0.134E-01
DAV:   3    -0.156836987101E+04    0.10512E-02   -0.35526E-03 17976   0.101E-01    0.635E-02
DAV:   4    -0.156836982693E+04    0.44079E-04   -0.62025E-04 16544   0.357E-02    0.417E-02
DAV:   5    -0.156836980095E+04    0.25982E-04   -0.34102E-04 15344   0.292E-02    0.187E-02
DAV:   6    -0.156836979606E+04    0.48825E-05   -0.11731E-04 14536   0.188E-02    0.106E-02
DAV:   7    -0.156836979080E+04    0.52612E-05   -0.26712E-05  7416   0.953E-03
   8 F= -.15683698E+04 E0= -.15683697E+04  d E =-.579061E-02
       N       E                     dE             d eps       ncg     rms          rms(c)
DAV:   1    -0.156837280915E+04   -0.30131E-02   -0.26682E-01 11440   0.686E-01    0.102E-01
DAV:   2    -0.156837339780E+04   -0.58865E-03   -0.63824E-03 18344   0.133E-01    0.114E-01
DAV:   3    -0.156837254826E+04    0.84954E-03   -0.29573E-03 18312   0.912E-02    0.499E-02
DAV:   4    -0.156837246739E+04    0.80869E-04   -0.43495E-04 16176   0.295E-02    0.342E-02
DAV:   5    -0.156837241583E+04    0.51560E-04   -0.20788E-04 15632   0.231E-02    0.187E-02
DAV:   6    -0.156837239556E+04    0.20266E-04   -0.87940E-05 13848   0.166E-02    0.106E-02
DAV:   7    -0.156837238937E+04    0.61930E-05   -0.24312E-05  7256   0.919E-03
   9 F= -.15683724E+04 E0= -.15683720E+04  d E =-.259857E-02
       N       E                     dE             d eps       ncg     rms          rms(c)
DAV:   1    -0.156837373691E+04   -0.13414E-02   -0.90990E-02 11512   0.409E-01    0.616E-02
DAV:   2    -0.156837381511E+04   -0.78199E-04   -0.13161E-03 16936   0.544E-02    0.510E-02
DAV:   3    -0.156837371181E+04    0.10331E-03   -0.51845E-04 18128   0.384E-02    0.316E-02
DAV:   4    -0.156837370312E+04    0.86829E-05   -0.13247E-04 14416   0.173E-02    0.149E-02
DAV:   5    -0.156837371190E+04   -0.87707E-05   -0.53520E-05 10832   0.129E-02
  10 F= -.15683737E+04 E0= -.15683735E+04  d E =-.132253E-02
       N       E                     dE             d eps       ncg     rms          rms(c)
DAV:   1    -0.156837488641E+04   -0.11833E-02   -0.85441E-02 11488   0.388E-01    0.555E-02
DAV:   2    -0.156837501315E+04   -0.12674E-03   -0.17081E-03 18152   0.678E-02    0.582E-02
DAV:   3    -0.156837480300E+04    0.21015E-03   -0.74998E-04 18232   0.465E-02    0.281E-02
DAV:   4    -0.156837477344E+04    0.29561E-04   -0.12124E-04 14904   0.158E-02    0.189E-02
DAV:   5    -0.156837475221E+04    0.21231E-04   -0.56814E-05 11360   0.131E-02    0.969E-03
DAV:   6    -0.156837474398E+04    0.82357E-05   -0.19328E-05  7432   0.947E-03
  11 F= -.15683747E+04 E0= -.15683744E+04  d E =-.103208E-02
       N       E                     dE             d eps       ncg     rms          rms(c)
DAV:   1    -0.156837547949E+04   -0.72728E-03   -0.76247E-02 11416   0.363E-01    0.385E-02
DAV:   2    -0.156837560308E+04   -0.12358E-03   -0.97788E-04 17496   0.470E-02    0.419E-02
DAV:   3    -0.156837551619E+04    0.86887E-04   -0.32052E-04 17858   0.306E-02    0.229E-02
DAV:   4    -0.156837551635E+04   -0.16246E-06   -0.60700E-05 11720   0.120E-02    0.123E-02
DAV:   5    -0.156837551823E+04   -0.18838E-05   -0.24002E-05  7688   0.988E-03
  12 F= -.15683755E+04 E0= -.15683753E+04  d E =-.774258E-03
       N       E                     dE             d eps       ncg     rms          rms(c)
DAV:   1    -0.156837594826E+04   -0.43190E-03   -0.26449E-02 11488   0.218E-01    0.332E-02
DAV:   2    -0.156837594322E+04    0.50316E-05   -0.46889E-04 17712   0.336E-02    0.285E-02
DAV:   3    -0.156837589762E+04    0.45604E-04   -0.18218E-04 16700   0.235E-02    0.164E-02
DAV:   4    -0.156837588069E+04    0.16926E-04   -0.36382E-05  8912   0.964E-03    0.100E-02
DAV:   5    -0.156837586876E+04    0.11936E-04   -0.16431E-05  6600   0.754E-03    0.484E-03
DAV:   6    -0.156837586498E+04    0.37744E-05   -0.60176E-06  6320   0.557E-03
  13 F= -.15683759E+04 E0= -.15683755E+04  d E =-.346749E-03
       N       E                     dE             d eps       ncg     rms          rms(c)
DAV:   1    -0.156837622303E+04   -0.35427E-03   -0.27178E-02 11452   0.218E-01    0.244E-02
DAV:   2    -0.156837625444E+04   -0.31405E-04   -0.28829E-04 16888   0.234E-02    0.209E-02
DAV:   3    -0.156837624077E+04    0.13668E-04   -0.59044E-05 11130   0.143E-02    0.142E-02
DAV:   4    -0.156837624586E+04   -0.50963E-05   -0.22822E-05  6736   0.810E-03    0.584E-03
DAV:   5    -0.156837624937E+04   -0.35033E-05   -0.84645E-06  6456   0.638E-03
  14 F= -.15683762E+04 E0= -.15683760E+04  d E =-.384384E-03
       N       E                     dE             d eps       ncg     rms          rms(c)
DAV:   1    -0.156837659297E+04   -0.34711E-03   -0.31211E-02 11476   0.232E-01    0.245E-02
DAV:   2    -0.156837661795E+04   -0.24973E-04   -0.36509E-04 17376   0.286E-02    0.243E-02
DAV:   3    -0.156837658861E+04    0.29337E-04   -0.10594E-04 14978   0.186E-02    0.144E-02
DAV:   4    -0.156837658024E+04    0.83733E-05   -0.20879E-05  6968   0.760E-03    0.850E-03
DAV:   5    -0.156837657442E+04    0.58192E-05   -0.10935E-05  6504   0.693E-03
  15 F= -.15683766E+04 E0= -.15683763E+04  d E =-.325049E-03
       N       E                     dE             d eps       ncg     rms          rms(c)
DAV:   1    -0.156837680953E+04   -0.22929E-03   -0.21754E-02 11452   0.194E-01    0.197E-02
DAV:   2    -0.156837683167E+04   -0.22142E-04   -0.20589E-04 16528   0.187E-02    0.158E-02
DAV:   3    -0.156837682704E+04    0.46277E-05   -0.23818E-05  8110   0.101E-02    0.118E-02
DAV:   4    -0.156837683211E+04   -0.50659E-05   -0.16690E-05  6336   0.693E-03    0.401E-03
DAV:   5    -0.156837683451E+04   -0.24039E-05   -0.59277E-06  6242   0.548E-03
  16 F= -.15683768E+04 E0= -.15683766E+04  d E =-.260092E-03
       N       E                     dE             d eps       ncg     rms          rms(c)
DAV:   1    -0.156837700634E+04   -0.17424E-03   -0.93304E-03 11476   0.128E-01    0.167E-02
DAV:   2    -0.156837699870E+04    0.76394E-05   -0.11024E-04 15112   0.160E-02    0.131E-02
DAV:   3    -0.156837698958E+04    0.91254E-05   -0.28559E-05  8472   0.111E-02    0.867E-03
DAV:   4    -0.156837698337E+04    0.62063E-05   -0.11420E-05  6240   0.611E-03    0.517E-03
DAV:   5    -0.156837697825E+04    0.51213E-05   -0.60820E-06  6056   0.477E-03
  17 F= -.15683770E+04 E0= -.15683767E+04  d E =-.143741E-03
       N       E                     dE             d eps       ncg     rms          rms(c)
DAV:   1    -0.156837716177E+04   -0.17840E-03   -0.16534E-02 11452   0.168E-01    0.161E-02
DAV:   2    -0.156837717680E+04   -0.15025E-04   -0.14781E-04 15968   0.159E-02    0.133E-02
DAV:   3    -0.156837717377E+04    0.30276E-05   -0.15225E-05  7412   0.833E-03    0.102E-02
DAV:   4    -0.156837717647E+04   -0.27023E-05   -0.13266E-05  6192   0.591E-03    0.274E-03
DAV:   5    -0.156837717721E+04   -0.73786E-06   -0.39177E-06  6052   0.453E-03
  18 F= -.15683772E+04 E0= -.15683769E+04  d E =-.198958E-03
       N       E                     dE             d eps       ncg     rms          rms(c)
DAV:   1    -0.156837736746E+04   -0.19099E-03   -0.19553E-02 11452   0.183E-01    0.180E-02
DAV:   2    -0.156837737157E+04   -0.41101E-05   -0.18565E-04 16384   0.183E-02    0.147E-02
DAV:   3    -0.156837736434E+04    0.72330E-05   -0.23268E-05  8008   0.103E-02    0.109E-02
DAV:   4    -0.156837735814E+04    0.62044E-05   -0.13541E-05  6312   0.633E-03    0.576E-03
DAV:   5    -0.156837735427E+04    0.38695E-05   -0.70487E-06  6080   0.536E-03
  19 F= -.15683774E+04 E0= -.15683770E+04  d E =-.177058E-03
       N       E                     dE             d eps       ncg     rms          rms(c)
DAV:   1    -0.156837742402E+04   -0.65889E-04   -0.33823E-03 11488   0.778E-02    0.102E-02
DAV:   2    -0.156837743045E+04   -0.64300E-05   -0.23277E-05  7656   0.800E-03    0.661E-03
DAV:   3    -0.156837743245E+04   -0.19926E-05   -0.88826E-06  6414   0.590E-03    0.495E-03
DAV:   4    -0.156837743643E+04   -0.39868E-05   -0.52701E-06  5984   0.438E-03    0.208E-03
DAV:   5    -0.156837743842E+04   -0.19835E-05   -0.28638E-06  5936   0.307E-03
  20 F= -.15683774E+04 E0= -.15683772E+04  d E =-.841516E-04
       N       E                     dE             d eps       ncg     rms          rms(c)
DAV:   1    -0.156837756983E+04   -0.13339E-03   -0.11064E-02 11452   0.138E-01    0.139E-02
DAV:   2    -0.156837757061E+04   -0.77854E-06   -0.10974E-04 15488   0.132E-02    0.106E-02
DAV:   3    -0.156837756753E+04    0.30781E-05   -0.10869E-05  6820   0.686E-03    0.836E-03
DAV:   4    -0.156837756329E+04    0.42423E-05   -0.67897E-06  6008   0.484E-03    0.432E-03
DAV:   5    -0.156837756060E+04    0.26879E-05   -0.37191E-06  5936   0.388E-03
  21 F= -.15683776E+04 E0= -.15683773E+04  d E =-.122181E-03
       N       E                     dE             d eps       ncg     rms          rms(c)
DAV:   1    -0.156837765576E+04   -0.92476E-04   -0.78014E-03 11452   0.116E-01    0.105E-02
DAV:   2    -0.156837766307E+04   -0.73096E-05   -0.62595E-05 12080   0.103E-02    0.825E-03
DAV:   3    -0.156837766335E+04   -0.27434E-06   -0.88158E-06  6306   0.545E-03    0.646E-03
DAV:   4    -0.156837766576E+04   -0.24094E-05   -0.56209E-06  5936   0.390E-03    0.160E-03
DAV:   5    -0.156837766627E+04   -0.51535E-06   -0.19104E-06  5936   0.281E-03
  22 F= -.15683777E+04 E0= -.15683774E+04  d E =-.105672E-03
       N       E                     dE             d eps       ncg     rms          rms(c)
DAV:   1    -0.156837777547E+04   -0.10971E-03   -0.10612E-02 11440   0.135E-01    0.133E-02
DAV:   2    -0.156837777441E+04    0.10618E-05   -0.99395E-05 15048   0.124E-02    0.991E-03
DAV:   3    -0.156837777149E+04    0.29181E-05   -0.96857E-06  6770   0.636E-03    0.774E-03
DAV:   4    -0.156837776708E+04    0.44113E-05   -0.57168E-06  6032   0.474E-03    0.398E-03
DAV:   5    -0.156837776422E+04    0.28594E-05   -0.32300E-06  5936   0.359E-03
  23 F= -.15683778E+04 E0= -.15683775E+04  d E =-.979447E-04
       N       E                     dE             d eps       ncg     rms          rms(c)
DAV:   1    -0.156837780372E+04   -0.36640E-04   -0.17619E-03 11488   0.560E-02    0.727E-03
DAV:   2    -0.156837780850E+04   -0.47797E-05   -0.12082E-05  5976   0.558E-03    0.457E-03
DAV:   3    -0.156837781028E+04   -0.17838E-05   -0.45561E-06  5924   0.406E-03    0.349E-03
DAV:   4    -0.156837781298E+04   -0.26981E-05   -0.26855E-06  5936   0.304E-03    0.144E-03
DAV:   5    -0.156837781437E+04   -0.13959E-05   -0.14899E-06  5936   0.210E-03
  24 F= -.15683778E+04 E0= -.15683775E+04  d E =-.501571E-04
       N       E                     dE             d eps       ncg     rms          rms(c)
DAV:   1    -0.156837789815E+04   -0.85172E-04   -0.75204E-03 11440   0.113E-01    0.109E-02
DAV:   2    -0.156837789847E+04   -0.32515E-06   -0.65209E-05 12288   0.102E-02    0.826E-03
DAV:   3    -0.156837789706E+04    0.14138E-05   -0.85369E-06  6384   0.546E-03    0.630E-03
DAV:   4    -0.156837789416E+04    0.29026E-05   -0.44341E-06  5960   0.402E-03    0.271E-03
DAV:   5    -0.156837789296E+04    0.11984E-05   -0.22201E-06  5936   0.297E-03
  25 F= -.15683779E+04 E0= -.15683776E+04  d E =-.785861E-04
       N       E                     dE             d eps       ncg     rms          rms(c)
DAV:   1    -0.156837795069E+04   -0.56535E-04   -0.50531E-03 11440   0.930E-02    0.871E-03
DAV:   2    -0.156837795539E+04   -0.46968E-05   -0.30388E-05  8320   0.817E-03    0.628E-03
DAV:   3    -0.156837795712E+04   -0.17328E-05   -0.99234E-06  6080   0.490E-03    0.449E-03
DAV:   4    -0.156837795941E+04   -0.22894E-05   -0.57962E-06  5936   0.406E-03    0.150E-03
DAV:   5    -0.156837796015E+04   -0.74135E-06   -0.30301E-06  5936   0.287E-03
  26 F= -.15683780E+04 E0= -.15683777E+04  d E =-.671933E-04
       N       E                     dE             d eps       ncg     rms          rms(c)
DAV:   1    -0.156837801305E+04   -0.53641E-04   -0.34848E-03 11440   0.776E-02    0.889E-03
DAV:   2    -0.156837800755E+04    0.54984E-05   -0.24755E-05  7312   0.790E-03    0.584E-03
DAV:   3    -0.156837800602E+04    0.15331E-05   -0.95034E-06  6120   0.566E-03    0.438E-03
DAV:   4    -0.156837800331E+04    0.27107E-05   -0.50741E-06  5936   0.416E-03    0.237E-03
DAV:   5    -0.156837800177E+04    0.15380E-05   -0.31239E-06  5918   0.309E-03
  27 F= -.15683780E+04 E0= -.15683777E+04  d E =-.416194E-04
       N       E                     dE             d eps       ncg     rms          rms(c)
DAV:   1    -0.156837803770E+04   -0.34389E-04   -0.23507E-03 11440   0.635E-02    0.686E-03
DAV:   2    -0.156837804144E+04   -0.37399E-05   -0.16315E-05  6478   0.621E-03    0.483E-03
DAV:   3    -0.156837804269E+04   -0.12477E-05   -0.65117E-06  5910   0.421E-03    0.368E-03
DAV:   4    -0.156837804473E+04   -0.20441E-05   -0.38587E-06  5918   0.320E-03    0.158E-03
DAV:   5    -0.156837804579E+04   -0.10557E-05   -0.21799E-06  5918   0.247E-03
  28 F= -.15683780E+04 E0= -.15683778E+04  d E =-.440145E-04
       N       E                     dE             d eps       ncg     rms          rms(c)
DAV:   1    -0.156837809640E+04   -0.51666E-04   -0.45439E-03 11440   0.879E-02    0.820E-03
DAV:   2    -0.156837809593E+04    0.46694E-06   -0.30872E-05  8752   0.804E-03    0.605E-03
DAV:   3    -0.156837809543E+04    0.50150E-06   -0.91735E-06  6096   0.495E-03    0.428E-03
DAV:   4    -0.156837809388E+04    0.15512E-05   -0.52662E-06  5936   0.407E-03    0.154E-03
DAV:   5    -0.156837809369E+04    0.19125E-06   -0.28818E-06  5936   0.299E-03
  29 F= -.15683781E+04 E0= -.15683778E+04  d E =-.478990E-04
       N       E                     dE             d eps       ncg     rms          rms(c)
DAV:   1    -0.156837813514E+04   -0.41266E-04   -0.46140E-03 11428   0.888E-02    0.871E-03
DAV:   2    -0.156837814016E+04   -0.50171E-05   -0.32482E-05  8504   0.819E-03    0.621E-03
DAV:   3    -0.156837814204E+04   -0.18808E-05   -0.99199E-06  6034   0.505E-03    0.435E-03
DAV:   4    -0.156837814410E+04   -0.20563E-05   -0.53118E-06  5918   0.397E-03    0.190E-03
DAV:   5    -0.156837814514E+04   -0.10405E-05   -0.29625E-06  5918   0.288E-03
  30 F= -.15683781E+04 E0= -.15683779E+04  d E =-.514520E-04
       N       E                     dE             d eps       ncg     rms          rms(c)
DAV:   1    -0.156837816504E+04   -0.20943E-04   -0.50094E-04 11452   0.303E-02    0.522E-03
DAV:   2    -0.156837816023E+04    0.48063E-05   -0.59774E-06  5900   0.399E-03    0.293E-03
DAV:   3    -0.156837815883E+04    0.14027E-05   -0.26986E-06  5882   0.334E-03    0.222E-03
DAV:   4    -0.156837815720E+04    0.16334E-05   -0.13372E-06  5900   0.226E-03    0.124E-03
DAV:   5    -0.156837815602E+04    0.11833E-05   -0.83940E-07  5900   0.160E-03
  31 F= -.15683782E+04 E0= -.15683779E+04  d E =-.108774E-04
       N       E                     dE             d eps       ncg     rms          rms(c)
DAV:   1    -0.156837819005E+04   -0.32855E-04   -0.31968E-03 11428   0.737E-02    0.673E-03
DAV:   2    -0.156837819146E+04   -0.14073E-05   -0.17877E-05  7208   0.646E-03    0.502E-03
DAV:   3    -0.156837819201E+04   -0.54464E-06   -0.66738E-06  5970   0.393E-03    0.348E-03
DAV:   4    -0.156837819251E+04   -0.50481E-06   -0.42846E-06  5918   0.340E-03    0.940E-04
DAV:   5    -0.156837819264E+04   -0.13350E-06   -0.20985E-06  5912   0.236E-03
  32 F= -.15683782E+04 E0= -.15683779E+04  d E =-.366285E-04
       N       E                     dE             d eps       ncg     rms          rms(c)
DAV:   1    -0.156837828370E+04   -0.91192E-04   -0.33649E-02 11368   0.239E-01    0.215E-02
DAV:   2    -0.156837829690E+04   -0.13201E-04   -0.30049E-04 16872   0.207E-02    0.165E-02
DAV:   3    -0.156837829037E+04    0.65334E-05   -0.16860E-05  7406   0.763E-03    0.110E-02
DAV:   4    -0.156837828514E+04    0.52318E-05   -0.13261E-05  6984   0.782E-03    0.499E-03
DAV:   5    -0.156837828290E+04    0.22345E-05   -0.58119E-06  6216   0.570E-03
  33 F= -.15683783E+04 E0= -.15683780E+04  d E =-.902595E-04
       N       E                     dE             d eps       ncg     rms          rms(c)
DAV:   1    -0.156837822450E+04    0.60636E-04   -0.12997E-02 11404   0.149E-01    0.154E-02
DAV:   2    -0.156837823314E+04   -0.86426E-05   -0.99738E-05 14752   0.128E-02    0.111E-02
DAV:   3    -0.156837823376E+04   -0.61348E-06   -0.10354E-05  6156   0.593E-03    0.815E-03
DAV:   4    -0.156837823514E+04   -0.13827E-05   -0.63783E-06  5936   0.531E-03    0.379E-03
DAV:   5    -0.156837823669E+04   -0.15478E-05   -0.31617E-06  5900   0.377E-03
  34 F= -.15683782E+04 E0= -.15683780E+04  d E =0.462153E-04
       N       E                     dE             d eps       ncg     rms          rms(c)
DAV:   1    -0.156837828294E+04   -0.47801E-04   -0.76771E-03 11416   0.114E-01    0.103E-02
DAV:   2    -0.156837828434E+04   -0.13959E-05   -0.49804E-05 10720   0.957E-03    0.795E-03
DAV:   3    -0.156837828357E+04    0.76316E-06   -0.76653E-06  5924   0.503E-03    0.589E-03
DAV:   4    -0.156837828163E+04    0.19453E-05   -0.54413E-06  5900   0.408E-03    0.147E-03
DAV:   5    -0.156837828164E+04   -0.12434E-07   -0.16601E-06  5900   0.254E-03
  35 F= -.15683783E+04 E0= -.15683780E+04  d E =-.449527E-04
       N       E                     dE             d eps       ncg     rms          rms(c)
DAV:   1    -0.156837837416E+04   -0.92528E-04   -0.11709E-01 11368   0.446E-01    0.389E-02
DAV:   2    -0.156837843494E+04   -0.60788E-04   -0.97501E-04 16928   0.375E-02    0.302E-02
DAV:   3    -0.156837842404E+04    0.10901E-04   -0.76144E-05 12578   0.137E-02    0.203E-02
DAV:   4    -0.156837841086E+04    0.13178E-04   -0.56748E-05 11464   0.134E-02    0.712E-03
DAV:   5    -0.156837840844E+04    0.24233E-05   -0.15366E-05  6936   0.789E-03
  36 F= -.15683784E+04 E0= -.15683782E+04  d E =-.126801E-03
       N       E                     dE             d eps       ncg     rms          rms(c)
DAV:   1    -0.156837842731E+04   -0.16446E-04   -0.94232E-03 11404   0.128E-01    0.126E-02
DAV:   2    -0.156837842481E+04    0.25023E-05   -0.94349E-05 14728   0.123E-02    0.953E-03
DAV:   3    -0.156837842150E+04    0.33115E-05   -0.10942E-05  6772   0.665E-03    0.736E-03
DAV:   4    -0.156837841705E+04    0.44452E-05   -0.58799E-06  6008   0.434E-03    0.418E-03
DAV:   5    -0.156837841355E+04    0.35017E-05   -0.34008E-06  5960   0.356E-03
  37 F= -.15683784E+04 E0= -.15683781E+04  d E =-.510869E-05
       N       E                     dE             d eps       ncg     rms          rms(c)
DAV:   1    -0.156837840621E+04    0.10840E-04   -0.28604E-03 11416   0.708E-02    0.844E-03
DAV:   2    -0.156837841070E+04   -0.44904E-05   -0.16100E-05  5982   0.661E-03    0.542E-03
DAV:   3    -0.156837841249E+04   -0.17842E-05   -0.55183E-06  5906   0.441E-03    0.398E-03
DAV:   4    -0.156837841482E+04   -0.23388E-05   -0.28942E-06  5918   0.347E-03    0.189E-03
DAV:   5    -0.156837841637E+04   -0.15437E-05   -0.16740E-06  5918   0.240E-03
  38 F= -.15683784E+04 E0= -.15683782E+04  d E =-.281850E-05
       N       E                     dE             d eps       ncg     rms          rms(c)
DAV:   1    -0.156837842090E+04   -0.60746E-05   -0.56453E-04 11440   0.311E-02    0.262E-03
DAV:   2    -0.156837842116E+04   -0.25583E-06   -0.23600E-06  5828   0.262E-03    0.195E-03
DAV:   3    -0.156837842117E+04   -0.19133E-07   -0.58966E-07  5828   0.145E-03    0.149E-03
DAV:   4    -0.156837842123E+04   -0.53239E-07   -0.38474E-07  5828   0.116E-03    0.542E-04
DAV:   5    -0.156837842126E+04   -0.33411E-07   -0.18299E-07  5828   0.830E-04
  39 F= -.15683784E+04 E0= -.15683782E+04  d E =-.489247E-05
       N       E                     dE             d eps       ncg     rms          rms(c)
DAV:   1    -0.156837843094E+04   -0.97163E-05   -0.40649E-03 11404   0.831E-02    0.726E-03
DAV:   2    -0.156837843155E+04   -0.60379E-06   -0.21204E-05  7096   0.709E-03    0.544E-03
DAV:   3    -0.156837843166E+04   -0.11116E-06   -0.74397E-06  5940   0.414E-03    0.387E-03
DAV:   4    -0.156837843118E+04    0.48384E-06   -0.46671E-06  5900   0.359E-03    0.103E-03
DAV:   5    -0.156837843133E+04   -0.15058E-06   -0.22536E-06  5894   0.247E-03
  40 F= -.15683784E+04 E0= -.15683782E+04  d E =-.100646E-04
       N       E                     dE             d eps       ncg     rms          rms(c)
DAV:   1    -0.156837843594E+04   -0.47605E-05   -0.21644E-03 11416   0.605E-02    0.524E-03
DAV:   2    -0.156837843663E+04   -0.69018E-06   -0.13786E-05  6082   0.560E-03    0.395E-03
DAV:   3    -0.156837843682E+04   -0.19260E-06   -0.54788E-06  5876   0.356E-03    0.235E-03
DAV:   4    -0.156837843680E+04    0.16901E-07   -0.31756E-06  5846   0.304E-03    0.709E-04
DAV:   5    -0.156837843695E+04   -0.14901E-06   -0.17411E-06  5846   0.219E-03
  41 F= -.15683784E+04 E0= -.15683782E+04  d E =-.562482E-05
