       N       E                     dE             d eps       ncg     rms          rms(c)
DAV:   1     0.205109039916E+04    0.20511E+04   -0.28312E+05 11408   0.143E+03
DAV:   2    -0.118814247415E+04   -0.32392E+04   -0.31113E+04 13132   0.280E+02
DAV:   3    -0.159928712508E+04   -0.41114E+03   -0.37682E+03 17688   0.823E+01
DAV:   4    -0.162439508313E+04   -0.25108E+02   -0.22966E+02 16144   0.168E+01
DAV:   5    -0.162549296715E+04   -0.10979E+01   -0.10741E+01 17216   0.432E+00    0.394E+01
DAV:   6    -0.158751347906E+04    0.37979E+02   -0.11157E+02 17576   0.148E+01    0.228E+01
DAV:   7    -0.157872981339E+04    0.87837E+01   -0.91933E+01 18328   0.156E+01    0.185E+01
DAV:   8    -0.156525323423E+04    0.13477E+02   -0.61766E+01 16472   0.116E+01    0.101E+01
DAV:   9    -0.156020947764E+04    0.50438E+01   -0.26677E+01 16312   0.788E+00    0.309E+00
DAV:  10    -0.156006602844E+04    0.14345E+00   -0.49015E+00 16032   0.316E+00    0.149E+00
DAV:  11    -0.156007138315E+04   -0.53547E-02   -0.64448E-01 15032   0.124E+00    0.113E+00
DAV:  12    -0.156004430030E+04    0.27083E-01   -0.20303E-01 14440   0.694E-01    0.655E-01
DAV:  13    -0.156002965339E+04    0.14647E-01   -0.69101E-02 14288   0.427E-01    0.318E-01
DAV:  14    -0.156002684990E+04    0.28035E-02   -0.19488E-02 15496   0.206E-01    0.160E-01
DAV:  15    -0.156002623311E+04    0.61679E-03   -0.51457E-03 15680   0.118E-01    0.969E-02
DAV:  16    -0.156002608086E+04    0.15225E-03   -0.16493E-03 15192   0.625E-02    0.612E-02
DAV:  17    -0.156002601748E+04    0.63385E-04   -0.67117E-04 13770   0.393E-02    0.305E-02
DAV:  18    -0.156002601801E+04   -0.52803E-06   -0.21332E-04 16288   0.237E-02    0.186E-02
DAV:  19    -0.156002600564E+04    0.12367E-04   -0.81298E-05 13208   0.145E-02    0.834E-03
DAV:  20    -0.156002600238E+04    0.32547E-05   -0.22830E-05  7256   0.759E-03
   1 F= -.15600260E+04 E0= -.15600217E+04  d E =-.156003E+04
       N       E                     dE             d eps       ncg     rms          rms(c)
DAV:   1    -0.156567930853E+04   -0.56533E+01   -0.21294E+03 11368   0.708E+01    0.256E+01
DAV:   2    -0.154280177069E+04    0.22878E+02   -0.14951E+02 18400   0.166E+01    0.168E+01
DAV:   3    -0.153596721075E+04    0.68346E+01   -0.86490E+01 19184   0.133E+01    0.130E+01
DAV:   4    -0.152883780058E+04    0.71294E+01   -0.36991E+01 20712   0.821E+00    0.831E+00
DAV:   5    -0.152608965090E+04    0.27481E+01   -0.21845E+01 17368   0.557E+00    0.341E+00
DAV:   6    -0.152573240228E+04    0.35725E+00   -0.42654E+00 16504   0.276E+00    0.203E+00
DAV:   7    -0.152567848489E+04    0.53917E-01   -0.68624E-01 15296   0.126E+00    0.152E+00
DAV:   8    -0.152564448875E+04    0.33996E-01   -0.25315E-01 17480   0.580E-01    0.829E-01
DAV:   9    -0.152564566754E+04   -0.11788E-02   -0.19249E-01 17872   0.425E-01    0.414E-01
DAV:  10    -0.152564712899E+04   -0.14614E-02   -0.37599E-02 16688   0.263E-01    0.307E-01
DAV:  11    -0.152564437459E+04    0.27544E-02   -0.13227E-02 18720   0.165E-01    0.176E-01
DAV:  12    -0.152564382153E+04    0.55307E-03   -0.82046E-03 18320   0.104E-01    0.786E-02
DAV:  13    -0.152564425744E+04   -0.43591E-03   -0.19931E-03 16672   0.523E-02    0.433E-02
DAV:  14    -0.152564437185E+04   -0.11441E-03   -0.62564E-04 16776   0.338E-02    0.329E-02
DAV:  15    -0.152564435080E+04    0.21055E-04   -0.18764E-04 15720   0.210E-02    0.209E-02
DAV:  16    -0.152564434413E+04    0.66652E-05   -0.90546E-05 13136   0.126E-02
   2 F= -.15256443E+04 E0= -.15256548E+04  d E =0.343817E+02
       N       E                     dE             d eps       ncg     rms          rms(c)
DAV:   1    -0.158696852744E+04   -0.61324E+02   -0.10516E+03 11368   0.549E+01    0.178E+01
DAV:   2    -0.157400933907E+04    0.12959E+02   -0.40955E+01 17122   0.102E+01    0.894E+00
DAV:   3    -0.157230131063E+04    0.17080E+01   -0.24086E+01 18352   0.753E+00    0.761E+00
DAV:   4    -0.156948762671E+04    0.28137E+01   -0.11144E+01 17872   0.521E+00    0.430E+00
DAV:   5    -0.156861729665E+04    0.87033E+00   -0.58098E+00 16128   0.345E+00    0.149E+00
DAV:   6    -0.156855902883E+04    0.58268E-01   -0.10750E+00 14696   0.152E+00    0.789E-01
DAV:   7    -0.156856811813E+04   -0.90893E-02   -0.15872E-01 15248   0.568E-01    0.580E-01
DAV:   8    -0.156857262623E+04   -0.45081E-02   -0.38585E-02 16080   0.269E-01    0.324E-01
DAV:   9    -0.156858392750E+04   -0.11301E-01   -0.47914E-02 16720   0.259E-01    0.273E-01
DAV:  10    -0.156858210529E+04    0.18222E-02   -0.10808E-02 15992   0.172E-01    0.127E-01
DAV:  11    -0.156858187541E+04    0.22987E-03   -0.38362E-03 17072   0.745E-02    0.545E-02
DAV:  12    -0.156858210307E+04   -0.22765E-03   -0.10849E-03 16504   0.449E-02    0.446E-02
DAV:  13    -0.156858224373E+04   -0.14066E-03   -0.41786E-04 14840   0.310E-02    0.269E-02
DAV:  14    -0.156858224713E+04   -0.33976E-05   -0.13689E-04 14056   0.158E-02    0.121E-02
DAV:  15    -0.156858224259E+04    0.45336E-05   -0.24557E-05  7040   0.782E-03
   3 F= -.15685822E+04 E0= -.15685746E+04  d E =-.429379E+02
       N       E                     dE             d eps       ncg     rms          rms(c)
DAV:   1    -0.156889512637E+04   -0.31288E+00   -0.27191E+01 11368   0.712E+00    0.103E+00
DAV:   2    -0.156890258878E+04   -0.74624E-02   -0.45559E-01 16648   0.855E-01    0.752E-01
DAV:   3    -0.156888581642E+04    0.16772E-01   -0.12169E-01 18336   0.559E-01    0.530E-01
DAV:   4    -0.156887519743E+04    0.10619E-01   -0.41180E-02 16064   0.300E-01    0.276E-01
DAV:   5    -0.156887277116E+04    0.24263E-02   -0.19435E-02 14872   0.206E-01    0.117E-01
DAV:   6    -0.156887254714E+04    0.22401E-03   -0.49824E-03 15672   0.116E-01    0.713E-02
DAV:   7    -0.156887249530E+04    0.51839E-04   -0.12987E-03 16296   0.608E-02    0.522E-02
DAV:   8    -0.156887243931E+04    0.55995E-04   -0.42313E-04 16008   0.313E-02    0.283E-02
DAV:   9    -0.156887245257E+04   -0.13258E-04   -0.17307E-04 15288   0.177E-02    0.157E-02
DAV:  10    -0.156887245321E+04   -0.64795E-06   -0.42580E-05  9512   0.121E-02
   4 F= -.15688725E+04 E0= -.15688687E+04  d E =-.290211E+00
       N       E                     dE             d eps       ncg     rms          rms(c)
DAV:   1    -0.156892633316E+04   -0.53881E-01   -0.47775E+00 11368   0.292E+00    0.468E-01
DAV:   2    -0.156893648759E+04   -0.10154E-01   -0.13194E-01 18336   0.559E-01    0.486E-01
DAV:   3    -0.156892189619E+04    0.14591E-01   -0.57065E-02 18472   0.385E-01    0.219E-01
DAV:   4    -0.156892026897E+04    0.16272E-02   -0.86020E-03 16088   0.127E-01    0.140E-01
DAV:   5    -0.156891969388E+04    0.57509E-03   -0.37308E-03 15416   0.923E-02    0.777E-02
DAV:   6    -0.156891947422E+04    0.21966E-03   -0.15203E-03 15128   0.637E-02    0.397E-02
DAV:   7    -0.156891942509E+04    0.49135E-04   -0.40702E-04 15400   0.347E-02    0.249E-02
DAV:   8    -0.156891942234E+04    0.27486E-05   -0.10403E-04 13296   0.149E-02    0.148E-02
DAV:   9    -0.156891942809E+04   -0.57523E-05   -0.38586E-05  8688   0.952E-03
   5 F= -.15689194E+04 E0= -.15689143E+04  d E =-.469749E-01
       N       E                     dE             d eps       ncg     rms          rms(c)
DAV:   1    -0.156893689381E+04   -0.17471E-01   -0.16866E+00 11368   0.175E+00    0.242E-01
DAV:   2    -0.156893934071E+04   -0.24469E-02   -0.29143E-02 17536   0.250E-01    0.243E-01
DAV:   3    -0.156893628559E+04    0.30551E-02   -0.11393E-02 18216   0.174E-01    0.126E-01
DAV:   4    -0.156893587574E+04    0.40985E-03   -0.24544E-03 15032   0.699E-02    0.652E-02
DAV:   5    -0.156893578520E+04    0.90535E-04   -0.10994E-03 15024   0.506E-02    0.290E-02
DAV:   6    -0.156893577723E+04    0.79745E-05   -0.30078E-04 15616   0.297E-02    0.187E-02
DAV:   7    -0.156893576747E+04    0.97595E-05   -0.82017E-05 13384   0.158E-02
   6 F= -.15689358E+04 E0= -.15689314E+04  d E =-.163394E-01
       N       E                     dE             d eps       ncg     rms          rms(c)
DAV:   1    -0.156894658372E+04   -0.10806E-01   -0.55045E-01 11440   0.103E+00    0.214E-01
DAV:   2    -0.156894727736E+04   -0.69365E-03   -0.18459E-02 18360   0.223E-01    0.204E-01
DAV:   3    -0.156894472495E+04    0.25524E-02   -0.10045E-02 18392   0.162E-01    0.964E-02
DAV:   4    -0.156894431778E+04    0.40717E-03   -0.17574E-03 15976   0.573E-02    0.572E-02
DAV:   5    -0.156894415331E+04    0.16447E-03   -0.76894E-04 15448   0.429E-02    0.295E-02
DAV:   6    -0.156894409928E+04    0.54034E-04   -0.26330E-04 15264   0.267E-02    0.154E-02
DAV:   7    -0.156894409134E+04    0.79339E-05   -0.58788E-05 11960   0.137E-02
   7 F= -.15689441E+04 E0= -.15689390E+04  d E =-.832387E-02
       N       E                     dE             d eps       ncg     rms          rms(c)
DAV:   1    -0.156894943583E+04   -0.53365E-02   -0.48807E-01 11392   0.925E-01    0.112E-01
DAV:   2    -0.156895074262E+04   -0.13068E-02   -0.88105E-03 17752   0.147E-01    0.145E-01
DAV:   3    -0.156894946523E+04    0.12774E-02   -0.38851E-03 18016   0.102E-01    0.608E-02
DAV:   4    -0.156894942009E+04    0.45138E-04   -0.58545E-04 15808   0.337E-02    0.351E-02
DAV:   5    -0.156894940509E+04    0.15002E-04   -0.27371E-04 15032   0.251E-02    0.147E-02
DAV:   6    -0.156894940286E+04    0.22346E-05   -0.72894E-05 12976   0.155E-02
   8 F= -.15689494E+04 E0= -.15689446E+04  d E =-.531151E-02
       N       E                     dE             d eps       ncg     rms          rms(c)
DAV:   1    -0.156895233678E+04   -0.29317E-02   -0.24554E-01 11470   0.658E-01    0.976E-02
DAV:   2    -0.156895300803E+04   -0.67126E-03   -0.58413E-03 18296   0.126E-01    0.119E-01
DAV:   3    -0.156895207662E+04    0.93141E-03   -0.29831E-03 18266   0.885E-02    0.473E-02
DAV:   4    -0.156895199969E+04    0.76933E-04   -0.37926E-04 16152   0.263E-02    0.307E-02
DAV:   5    -0.156895195531E+04    0.44377E-04   -0.17696E-04 15312   0.205E-02    0.162E-02
DAV:   6    -0.156895193844E+04    0.16872E-04   -0.65680E-05 13160   0.144E-02    0.852E-03
DAV:   7    -0.156895193557E+04    0.28687E-05   -0.16543E-05  6848   0.780E-03
   9 F= -.15689519E+04 E0= -.15689468E+04  d E =-.253272E-02
       N       E                     dE             d eps       ncg     rms          rms(c)
DAV:   1    -0.156895339999E+04   -0.14615E-02   -0.99303E-02 11488   0.423E-01    0.593E-02
DAV:   2    -0.156895354501E+04   -0.14502E-03   -0.14622E-03 17360   0.581E-02    0.579E-02
DAV:   3    -0.156895338325E+04    0.16176E-03   -0.63078E-04 18194   0.412E-02    0.311E-02
DAV:   4    -0.156895337658E+04    0.66666E-05   -0.12470E-04 13736   0.162E-02    0.145E-02
DAV:   5    -0.156895338504E+04   -0.84531E-05   -0.46112E-05  9992   0.121E-02
  10 F= -.15689534E+04 E0= -.15689485E+04  d E =-.144946E-02
       N       E                     dE             d eps       ncg     rms          rms(c)
DAV:   1    -0.156895468424E+04   -0.13077E-02   -0.96641E-02 11488   0.411E-01    0.552E-02
DAV:   2    -0.156895487178E+04   -0.18754E-03   -0.18140E-03 18128   0.685E-02    0.647E-02
DAV:   3    -0.156895460983E+04    0.26195E-03   -0.85064E-04 18178   0.476E-02    0.285E-02
DAV:   4    -0.156895457918E+04    0.30648E-04   -0.11512E-04 14352   0.149E-02    0.180E-02
DAV:   5    -0.156895455992E+04    0.19262E-04   -0.51695E-05 10680   0.123E-02    0.871E-03
DAV:   6    -0.156895455329E+04    0.66263E-05   -0.16068E-05  7296   0.882E-03
  11 F= -.15689546E+04 E0= -.15689495E+04  d E =-.116826E-02
       N       E                     dE             d eps       ncg     rms          rms(c)
DAV:   1    -0.156895546950E+04   -0.90958E-03   -0.89842E-02 11410   0.394E-01    0.413E-02
DAV:   2    -0.156895561464E+04   -0.14513E-03   -0.10992E-03 17536   0.491E-02    0.467E-02
DAV:   3    -0.156895550608E+04    0.10856E-03   -0.38343E-04 17998   0.322E-02    0.247E-02
DAV:   4    -0.156895550439E+04    0.16933E-05   -0.69494E-05 12360   0.123E-02    0.111E-02
DAV:   5    -0.156895550665E+04   -0.22602E-05   -0.23345E-05  7456   0.912E-03
  12 F= -.15689555E+04 E0= -.15689506E+04  d E =-.953355E-03
       N       E                     dE             d eps       ncg     rms          rms(c)
DAV:   1    -0.156895606343E+04   -0.55904E-03   -0.33306E-02 11500   0.243E-01    0.345E-02
DAV:   2    -0.156895607186E+04   -0.84305E-05   -0.53382E-04 17648   0.353E-02    0.321E-02
DAV:   3    -0.156895601477E+04    0.57087E-04   -0.21587E-04 16840   0.245E-02    0.177E-02
DAV:   4    -0.156895599559E+04    0.19180E-04   -0.38265E-05  8856   0.949E-03    0.102E-02
DAV:   5    -0.156895598393E+04    0.11664E-04   -0.16748E-05  6696   0.769E-03    0.504E-03
DAV:   6    -0.156895598029E+04    0.36365E-05   -0.60091E-06  6432   0.570E-03
  13 F= -.15689560E+04 E0= -.15689510E+04  d E =-.473642E-03
       N       E                     dE             d eps       ncg     rms          rms(c)
DAV:   1    -0.156895649130E+04   -0.50738E-03   -0.39336E-02 11446   0.261E-01    0.276E-02
DAV:   2    -0.156895653424E+04   -0.42935E-04   -0.40086E-04 16848   0.273E-02    0.251E-02
DAV:   3    -0.156895651318E+04    0.21057E-04   -0.90871E-05 14186   0.164E-02    0.166E-02
DAV:   4    -0.156895651633E+04   -0.31440E-05   -0.28400E-05  7312   0.859E-03    0.641E-03
DAV:   5    -0.156895651961E+04   -0.32840E-05   -0.95035E-06  6480   0.640E-03
  14 F= -.15689565E+04 E0= -.15689516E+04  d E =-.539321E-03
       N       E                     dE             d eps       ncg     rms          rms(c)
DAV:   1    -0.156895701885E+04   -0.50252E-03   -0.45376E-02 11464   0.279E-01    0.288E-02
DAV:   2    -0.156895705457E+04   -0.35726E-04   -0.50421E-04 17184   0.321E-02    0.286E-02
DAV:   3    -0.156895701699E+04    0.37581E-04   -0.14308E-04 15960   0.203E-02    0.174E-02
DAV:   4    -0.156895700455E+04    0.12444E-04   -0.26796E-05  7448   0.826E-03    0.930E-03
DAV:   5    -0.156895699808E+04    0.64654E-05   -0.13382E-05  6648   0.747E-03
  15 F= -.15689570E+04 E0= -.15689520E+04  d E =-.478471E-03
       N       E                     dE             d eps       ncg     rms          rms(c)
DAV:   1    -0.156895732658E+04   -0.32203E-03   -0.26670E-02 11476   0.215E-01    0.221E-02
DAV:   2    -0.156895735041E+04   -0.23834E-04   -0.24777E-04 16664   0.200E-02    0.170E-02
DAV:   3    -0.156895734696E+04    0.34517E-05   -0.27158E-05  8414   0.101E-02    0.131E-02
DAV:   4    -0.156895735100E+04   -0.40441E-05   -0.16824E-05  6568   0.725E-03    0.490E-03
DAV:   5    -0.156895735437E+04   -0.33644E-05   -0.67395E-06  6264   0.554E-03
  16 F= -.15689574E+04 E0= -.15689525E+04  d E =-.356286E-03
       N       E                     dE             d eps       ncg     rms          rms(c)
DAV:   1    -0.156895763701E+04   -0.28601E-03   -0.17576E-02 11488   0.175E-01    0.203E-02
DAV:   2    -0.156895763460E+04    0.24145E-05   -0.19237E-04 16768   0.194E-02    0.166E-02
DAV:   3    -0.156895762271E+04    0.11889E-04   -0.42055E-05  9632   0.121E-02    0.115E-02
DAV:   4    -0.156895761420E+04    0.85074E-05   -0.15256E-05  6360   0.679E-03    0.639E-03
DAV:   5    -0.156895760824E+04    0.59624E-05   -0.78159E-06  6168   0.559E-03
  17 F= -.15689576E+04 E0= -.15689527E+04  d E =-.253875E-03
       N       E                     dE             d eps       ncg     rms          rms(c)
DAV:   1    -0.156895789793E+04   -0.28373E-03   -0.26082E-02 11452   0.211E-01    0.199E-02
DAV:   2    -0.156895791867E+04   -0.20744E-04   -0.22847E-04 16520   0.192E-02    0.161E-02
DAV:   3    -0.156895791510E+04    0.35730E-05   -0.19679E-05  7734   0.896E-03    0.126E-02
DAV:   4    -0.156895791683E+04   -0.17315E-05   -0.17362E-05  6456   0.684E-03    0.361E-03
DAV:   5    -0.156895791807E+04   -0.12349E-05   -0.54985E-06  6162   0.530E-03
  18 F= -.15689579E+04 E0= -.15689530E+04  d E =-.309825E-03
       N       E                     dE             d eps       ncg     rms          rms(c)
DAV:   1    -0.156895819722E+04   -0.28039E-03   -0.26287E-02 11452   0.212E-01    0.214E-02
DAV:   2    -0.156895820193E+04   -0.47027E-05   -0.25421E-04 16832   0.209E-02    0.171E-02
DAV:   3    -0.156895819275E+04    0.91740E-05   -0.35019E-05  9024   0.114E-02    0.129E-02
DAV:   4    -0.156895818410E+04    0.86565E-05   -0.16414E-05  6472   0.701E-03    0.680E-03
DAV:   5    -0.156895817885E+04    0.52410E-05   -0.86951E-06  6120   0.589E-03
  19 F= -.15689582E+04 E0= -.15689532E+04  d E =-.260788E-03
       N       E                     dE             d eps       ncg     rms          rms(c)
DAV:   1    -0.156895830786E+04   -0.12377E-03   -0.66936E-03 11488   0.109E-01    0.130E-02
DAV:   2    -0.156895831697E+04   -0.91014E-05   -0.58793E-05 11600   0.104E-02    0.862E-03
DAV:   3    -0.156895831907E+04   -0.20997E-05   -0.11366E-05  6662   0.646E-03    0.665E-03
DAV:   4    -0.156895832295E+04   -0.38820E-05   -0.52878E-06  6056   0.459E-03    0.278E-03
DAV:   5    -0.156895832556E+04   -0.26139E-05   -0.27098E-06  5984   0.311E-03
  20 F= -.15689583E+04 E0= -.15689534E+04  d E =-.146706E-03
       N       E                     dE             d eps       ncg     rms          rms(c)
DAV:   1    -0.156895853784E+04   -0.21489E-03   -0.18540E-02 11452   0.178E-01    0.173E-02
DAV:   2    -0.156895854174E+04   -0.39060E-05   -0.17038E-04 16160   0.161E-02    0.133E-02
DAV:   3    -0.156895853792E+04    0.38230E-05   -0.13803E-05  7314   0.751E-03    0.106E-02
DAV:   4    -0.156895853162E+04    0.62970E-05   -0.10047E-05  6128   0.565E-03    0.459E-03
DAV:   5    -0.156895852905E+04    0.25768E-05   -0.47075E-06  6008   0.435E-03
  21 F= -.15689585E+04 E0= -.15689536E+04  d E =-.203484E-03
       N       E                     dE             d eps       ncg     rms          rms(c)
DAV:   1    -0.156895870395E+04   -0.17233E-03   -0.16623E-02 11440   0.169E-01    0.155E-02
DAV:   2    -0.156895871787E+04   -0.13922E-04   -0.14402E-04 15928   0.147E-02    0.118E-02
DAV:   3    -0.156895871819E+04   -0.32036E-06   -0.94423E-06  6878   0.617E-03    0.903E-03
DAV:   4    -0.156895872020E+04   -0.20061E-05   -0.78003E-06  6200   0.544E-03    0.256E-03
DAV:   5    -0.156895872121E+04   -0.10184E-05   -0.26970E-06  5984   0.354E-03
  22 F= -.15689587E+04 E0= -.15689538E+04  d E =-.192168E-03
       N       E                     dE             d eps       ncg     rms          rms(c)
DAV:   1    -0.156895884487E+04   -0.12468E-03   -0.74155E-03 11464   0.113E-01    0.127E-02
DAV:   2    -0.156895883835E+04    0.65281E-05   -0.67683E-05 12640   0.108E-02    0.851E-03
DAV:   3    -0.156895883520E+04    0.31415E-05   -0.10963E-05  6558   0.612E-03    0.649E-03
DAV:   4    -0.156895883096E+04    0.42486E-05   -0.43967E-06  5984   0.435E-03    0.358E-03
DAV:   5    -0.156895882755E+04    0.34048E-05   -0.28448E-06  5960   0.312E-03
  23 F= -.15689588E+04 E0= -.15689539E+04  d E =-.106337E-03
       N       E                     dE             d eps       ncg     rms          rms(c)
DAV:   1    -0.156895894852E+04   -0.11756E-03   -0.95344E-03 11452   0.128E-01    0.125E-02
DAV:   2    -0.156895895791E+04   -0.93930E-05   -0.84423E-05 14520   0.111E-02    0.923E-03
DAV:   3    -0.156895895890E+04   -0.99086E-06   -0.73618E-06  6420   0.521E-03    0.704E-03
DAV:   4    -0.156895896110E+04   -0.22030E-05   -0.49647E-06  6008   0.440E-03    0.222E-03
DAV:   5    -0.156895896219E+04   -0.10837E-05   -0.19124E-06  5930   0.285E-03
  24 F= -.15689590E+04 E0= -.15689541E+04  d E =-.134637E-03
       N       E                     dE             d eps       ncg     rms          rms(c)
DAV:   1    -0.156895909432E+04   -0.13322E-03   -0.11776E-02 11416   0.142E-01    0.134E-02
DAV:   2    -0.156895909564E+04   -0.13207E-05   -0.10493E-04 15512   0.126E-02    0.101E-02
DAV:   3    -0.156895909324E+04    0.24039E-05   -0.78997E-06  6598   0.563E-03    0.794E-03
DAV:   4    -0.156895908896E+04    0.42749E-05   -0.56090E-06  6032   0.453E-03    0.344E-03
DAV:   5    -0.156895908709E+04    0.18750E-05   -0.27523E-06  5936   0.332E-03
  25 F= -.15689591E+04 E0= -.15689542E+04  d E =-.124900E-03
       N       E                     dE             d eps       ncg     rms          rms(c)
DAV:   1    -0.156895917601E+04   -0.87049E-04   -0.69705E-03 11440   0.110E-01    0.107E-02
DAV:   2    -0.156895918364E+04   -0.76311E-05   -0.55768E-05 11456   0.974E-03    0.778E-03
DAV:   3    -0.156895918510E+04   -0.14603E-05   -0.87642E-06  6218   0.546E-03    0.593E-03
DAV:   4    -0.156895918771E+04   -0.26016E-05   -0.43034E-06  5936   0.396E-03    0.209E-03
DAV:   5    -0.156895918909E+04   -0.13853E-05   -0.20194E-06  5936   0.270E-03
  26 F= -.15689592E+04 E0= -.15689543E+04  d E =-.102002E-03
       N       E                     dE             d eps       ncg     rms          rms(c)
DAV:   1    -0.156895927698E+04   -0.89274E-04   -0.58686E-03 11440   0.100E-01    0.107E-02
DAV:   2    -0.156895927299E+04    0.39852E-05   -0.51119E-05 10912   0.938E-03    0.756E-03
DAV:   3    -0.156895927113E+04    0.18637E-05   -0.95344E-06  6354   0.567E-03    0.587E-03
DAV:   4    -0.156895926748E+04    0.36546E-05   -0.39799E-06  5936   0.377E-03    0.290E-03
DAV:   5    -0.156895926521E+04    0.22615E-05   -0.23113E-06  5936   0.279E-03
  27 F= -.15689593E+04 E0= -.15689544E+04  d E =-.761238E-04
       N       E                     dE             d eps       ncg     rms          rms(c)
DAV:   1    -0.156895934249E+04   -0.75015E-04   -0.62795E-03 11416   0.104E-01    0.987E-03
DAV:   2    -0.156895934871E+04   -0.62147E-05   -0.50728E-05 11096   0.908E-03    0.740E-03
DAV:   3    -0.156895934980E+04   -0.10973E-05   -0.81517E-06  6046   0.507E-03    0.554E-03
DAV:   4    -0.156895935181E+04   -0.20114E-05   -0.42316E-06  5936   0.379E-03    0.163E-03
DAV:   5    -0.156895935252E+04   -0.70980E-06   -0.18112E-06  5936   0.257E-03
  28 F= -.15689594E+04 E0= -.15689545E+04  d E =-.873098E-04
       N       E                     dE             d eps       ncg     rms          rms(c)
DAV:   1    -0.156895943562E+04   -0.83806E-04   -0.71484E-03 11416   0.111E-01    0.107E-02
DAV:   2    -0.156895943443E+04    0.11917E-05   -0.61412E-05 11944   0.991E-03    0.791E-03
DAV:   3    -0.156895943279E+04    0.16354E-05   -0.87144E-06  6218   0.537E-03    0.601E-03
DAV:   4    -0.156895942963E+04    0.31670E-05   -0.39679E-06  5960   0.384E-03    0.272E-03
DAV:   5    -0.156895942804E+04    0.15820E-05   -0.21530E-06  5936   0.280E-03
  29 F= -.15689594E+04 E0= -.15689545E+04  d E =-.755203E-04
       N       E                     dE             d eps       ncg     rms          rms(c)
DAV:   1    -0.156895947425E+04   -0.44623E-04   -0.29785E-03 11440   0.717E-02    0.744E-03
DAV:   2    -0.156895947857E+04   -0.43218E-05   -0.18195E-05  6776   0.657E-03    0.513E-03
DAV:   3    -0.156895948003E+04   -0.14598E-05   -0.67408E-06  5988   0.429E-03    0.393E-03
DAV:   4    -0.156895948252E+04   -0.24881E-05   -0.40072E-06  5936   0.333E-03    0.142E-03
DAV:   5    -0.156895948349E+04   -0.96579E-06   -0.21537E-06  5936   0.241E-03
  30 F= -.15689595E+04 E0= -.15689546E+04  d E =-.554408E-04
       N       E                     dE             d eps       ncg     rms          rms(c)
DAV:   1    -0.156895954890E+04   -0.66380E-04   -0.52550E-03 11416   0.947E-02    0.956E-03
DAV:   2    -0.156895954679E+04    0.21108E-05   -0.43681E-05 10304   0.878E-03    0.690E-03
DAV:   3    -0.156895954549E+04    0.12945E-05   -0.89486E-06  6146   0.526E-03    0.516E-03
DAV:   4    -0.156895954279E+04    0.27080E-05   -0.41747E-06  5936   0.381E-03    0.233E-03
DAV:   5    -0.156895954155E+04    0.12407E-05   -0.23769E-06  5930   0.272E-03
  31 F= -.15689595E+04 E0= -.15689547E+04  d E =-.580601E-04
       N       E                     dE             d eps       ncg     rms          rms(c)
DAV:   1    -0.156895958139E+04   -0.38606E-04   -0.26449E-03 11416   0.673E-02    0.669E-03
DAV:   2    -0.156895958492E+04   -0.35282E-05   -0.16474E-05  6424   0.620E-03    0.476E-03
DAV:   3    -0.156895958612E+04   -0.11992E-05   -0.62251E-06  5934   0.398E-03    0.360E-03
DAV:   4    -0.156895958819E+04   -0.20727E-05   -0.37448E-06  5936   0.314E-03    0.119E-03
DAV:   5    -0.156895958886E+04   -0.67223E-06   -0.20009E-06  5936   0.231E-03
  32 F= -.15689596E+04 E0= -.15689547E+04  d E =-.473193E-04
       N       E                     dE             d eps       ncg     rms          rms(c)
DAV:   1    -0.156895964366E+04   -0.55468E-04   -0.47166E-03 11416   0.896E-02    0.878E-03
DAV:   2    -0.156895964173E+04    0.19280E-05   -0.33023E-05  8992   0.825E-03    0.627E-03
DAV:   3    -0.156895964078E+04    0.95421E-06   -0.95804E-06  6096   0.507E-03    0.452E-03
DAV:   4    -0.156895963865E+04    0.21290E-05   -0.51123E-06  5936   0.399E-03    0.188E-03
DAV:   5    -0.156895963803E+04    0.62332E-06   -0.29170E-06  5936   0.287E-03
  33 F= -.15689596E+04 E0= -.15689548E+04  d E =-.491614E-04
       N       E                     dE             d eps       ncg     rms          rms(c)
DAV:   1    -0.156895966743E+04   -0.28784E-04   -0.19131E-03 11416   0.574E-02    0.621E-03
DAV:   2    -0.156895967106E+04   -0.36280E-05   -0.13459E-05  6040   0.567E-03    0.427E-03
DAV:   3    -0.156895967231E+04   -0.12501E-05   -0.53863E-06  5912   0.390E-03    0.328E-03
DAV:   4    -0.156895967430E+04   -0.19850E-05   -0.31092E-06  5936   0.295E-03    0.135E-03
DAV:   5    -0.156895967526E+04   -0.96096E-06   -0.17723E-06  5936   0.222E-03
  34 F= -.15689597E+04 E0= -.15689548E+04  d E =-.372313E-04
       N       E                     dE             d eps       ncg     rms          rms(c)
DAV:   1    -0.156895971441E+04   -0.40114E-04   -0.26965E-03 11416   0.678E-02    0.674E-03
DAV:   2    -0.156895971247E+04    0.19404E-05   -0.17026E-05  7424   0.637E-03    0.476E-03
DAV:   3    -0.156895971183E+04    0.63604E-06   -0.65899E-06  6034   0.416E-03    0.348E-03
DAV:   4    -0.156895971021E+04    0.16222E-05   -0.37342E-06  5936   0.330E-03    0.137E-03
DAV:   5    -0.156895970982E+04    0.39041E-06   -0.21665E-06  5936   0.245E-03
  35 F= -.15689597E+04 E0= -.15689549E+04  d E =-.345640E-04
       N       E                     dE             d eps       ncg     rms          rms(c)
DAV:   1    -0.156895974771E+04   -0.37502E-04   -0.38288E-03 11416   0.807E-02    0.756E-03
DAV:   2    -0.156895975112E+04   -0.34088E-05   -0.25335E-05  8152   0.737E-03    0.555E-03
DAV:   3    -0.156895975237E+04   -0.12487E-05   -0.83094E-06  5992   0.450E-03    0.395E-03
DAV:   4    -0.156895975393E+04   -0.15633E-05   -0.49523E-06  5936   0.375E-03    0.110E-03
DAV:   5    -0.156895975433E+04   -0.39564E-06   -0.25702E-06  5936   0.266E-03
  36 F= -.15689598E+04 E0= -.15689549E+04  d E =-.445092E-04
       N       E                     dE             d eps       ncg     rms          rms(c)
DAV:   1    -0.156895977944E+04   -0.25504E-04   -0.12297E-03 11416   0.461E-02    0.560E-03
DAV:   2    -0.156895977577E+04    0.36724E-05   -0.99232E-06  5918   0.495E-03    0.356E-03
DAV:   3    -0.156895977475E+04    0.10143E-05   -0.41253E-06  5906   0.365E-03    0.273E-03
DAV:   4    -0.156895977307E+04    0.16849E-05   -0.21886E-06  5918   0.264E-03    0.139E-03
DAV:   5    -0.156895977208E+04    0.99215E-06   -0.13526E-06  5918   0.196E-03
  37 F= -.15689598E+04 E0= -.15689549E+04  d E =-.177449E-04
       N       E                     dE             d eps       ncg     rms          rms(c)
DAV:   1    -0.156895979537E+04   -0.22298E-04   -0.17220E-03 11416   0.542E-02    0.530E-03
DAV:   2    -0.156895979756E+04   -0.21968E-05   -0.10800E-05  6636   0.506E-03    0.386E-03
DAV:   3    -0.156895979832E+04   -0.76074E-06   -0.41934E-06  5924   0.328E-03    0.292E-03
DAV:   4    -0.156895979975E+04   -0.14275E-05   -0.26251E-06  5900   0.265E-03    0.778E-04
DAV:   5    -0.156895980006E+04   -0.30506E-06   -0.13728E-06  5900   0.197E-03
  38 F= -.15689598E+04 E0= -.15689550E+04  d E =-.279799E-04
       N       E                     dE             d eps       ncg     rms          rms(c)
DAV:   1    -0.156895983641E+04   -0.36665E-04   -0.41104E-03 11404   0.836E-02    0.774E-03
DAV:   2    -0.156895983577E+04    0.64665E-06   -0.25973E-05  8360   0.753E-03    0.562E-03
DAV:   3    -0.156895983500E+04    0.76407E-06   -0.85830E-06  6002   0.451E-03    0.344E-03
DAV:   4    -0.156895983396E+04    0.10398E-05   -0.46837E-06  5936   0.380E-03    0.134E-03
DAV:   5    -0.156895983390E+04    0.61423E-07   -0.26125E-06  5930   0.276E-03
  39 F= -.15689598E+04 E0= -.15689550E+04  d E =-.338477E-04
       N       E                     dE             d eps       ncg     rms          rms(c)
DAV:   1    -0.156895984505E+04   -0.11088E-04   -0.76449E-04 11416   0.368E-02    0.521E-03
DAV:   2    -0.156895984860E+04   -0.35525E-05   -0.72387E-06  5882   0.426E-03    0.317E-03
DAV:   3    -0.156895984987E+04   -0.12609E-05   -0.31709E-06  5870   0.335E-03    0.252E-03
DAV:   4    -0.156895985153E+04   -0.16692E-05   -0.16838E-06  5882   0.233E-03    0.121E-03
DAV:   5    -0.156895985272E+04   -0.11854E-05   -0.10094E-06  5882   0.170E-03
  40 F= -.15689599E+04 E0= -.15689550E+04  d E =-.188174E-04
       N       E                     dE             d eps       ncg     rms          rms(c)
DAV:   1    -0.156895987343E+04   -0.21892E-04   -0.11115E-03 11416   0.437E-02    0.479E-03
DAV:   2    -0.156895987113E+04    0.22999E-05   -0.74410E-06  5928   0.420E-03    0.320E-03
DAV:   3    -0.156895987025E+04    0.87712E-06   -0.29962E-06  5864   0.284E-03    0.229E-03
DAV:   4    -0.156895986908E+04    0.11702E-05   -0.16169E-06  5864   0.222E-03    0.108E-03
DAV:   5    -0.156895986849E+04    0.58512E-06   -0.97618E-07  5864   0.161E-03
  41 F= -.15689599E+04 E0= -.15689550E+04  d E =-.157744E-04
       N       E                     dE             d eps       ncg     rms          rms(c)
DAV:   1    -0.156895989261E+04   -0.23531E-04   -0.27832E-03 11404   0.687E-02    0.623E-03
DAV:   2    -0.156895989396E+04   -0.13480E-05   -0.16014E-05  7480   0.611E-03    0.461E-03
DAV:   3    -0.156895989453E+04   -0.57103E-06   -0.61907E-06  6018   0.376E-03    0.287E-03
DAV:   4    -0.156895989500E+04   -0.46839E-06   -0.36501E-06  5936   0.324E-03    0.806E-04
DAV:   5    -0.156895989511E+04   -0.11194E-06   -0.19019E-06  5936   0.225E-03
  42 F= -.15689599E+04 E0= -.15689551E+04  d E =-.266158E-04
       N       E                     dE             d eps       ncg     rms          rms(c)
DAV:   1    -0.156895993577E+04   -0.40772E-04   -0.85511E-03 11392   0.121E-01    0.120E-02
DAV:   2    -0.156895993451E+04    0.12620E-05   -0.83072E-05 14432   0.111E-02    0.868E-03
DAV:   3    -0.156895993150E+04    0.30103E-05   -0.74322E-06  6242   0.496E-03    0.611E-03
DAV:   4    -0.156895992847E+04    0.30330E-05   -0.39198E-06  5984   0.422E-03    0.336E-03
DAV:   5    -0.156895992622E+04    0.22421E-05   -0.22144E-06  5936   0.308E-03
  43 F= -.15689599E+04 E0= -.15689551E+04  d E =-.311130E-04
       N       E                     dE             d eps       ncg     rms          rms(c)
DAV:   1    -0.156895991281E+04    0.15658E-04   -0.12477E-03 11404   0.470E-02    0.640E-03
DAV:   2    -0.156895991637E+04   -0.35615E-05   -0.73217E-06  5810   0.448E-03    0.387E-03
DAV:   3    -0.156895991799E+04   -0.16187E-05   -0.26279E-06  5804   0.319E-03    0.303E-03
DAV:   4    -0.156895991974E+04   -0.17485E-05   -0.13979E-06  5810   0.238E-03    0.124E-03
DAV:   5    -0.156895992097E+04   -0.12295E-05   -0.75925E-07  5810   0.145E-03
  44 F= -.15689599E+04 E0= -.15689551E+04  d E =0.525813E-05
       N       E                     dE             d eps       ncg     rms          rms(c)
DAV:   1    -0.156895993993E+04   -0.20195E-04   -0.21434E-03 11404   0.605E-02    0.522E-03
DAV:   2    -0.156895994049E+04   -0.55469E-06   -0.99774E-06  5818   0.497E-03    0.383E-03
DAV:   3    -0.156895994058E+04   -0.96825E-07   -0.32127E-06  5804   0.277E-03    0.241E-03
DAV:   4    -0.156895994062E+04   -0.33269E-07   -0.18725E-06  5810   0.246E-03    0.672E-04
DAV:   5    -0.156895994067E+04   -0.53747E-07   -0.90344E-07  5810   0.162E-03
  45 F= -.15689599E+04 E0= -.15689551E+04  d E =-.197036E-04
       N       E                     dE             d eps       ncg     rms          rms(c)
DAV:   1    -0.156895998873E+04   -0.48110E-04   -0.21859E-02 11368   0.193E-01    0.177E-02
DAV:   2    -0.156895999506E+04   -0.63351E-05   -0.19128E-04 16272   0.167E-02    0.133E-02
DAV:   3    -0.156895998995E+04    0.51111E-05   -0.11519E-05  6964   0.623E-03    0.848E-03
DAV:   4    -0.156895998614E+04    0.38082E-05   -0.81458E-06  6472   0.633E-03    0.403E-03
DAV:   5    -0.156895998433E+04    0.18159E-05   -0.35306E-06  5988   0.422E-03
  46 F= -.15689600E+04 E0= -.15689551E+04  d E =-.436562E-04
       N       E                     dE             d eps       ncg     rms          rms(c)
DAV:   1    -0.156895995712E+04    0.29019E-04   -0.69028E-03 11380   0.109E-01    0.113E-02
DAV:   2    -0.156895996228E+04   -0.51579E-05   -0.45416E-05 10240   0.938E-03    0.802E-03
DAV:   3    -0.156895996334E+04   -0.10573E-05   -0.86379E-06  5930   0.542E-03    0.620E-03
DAV:   4    -0.156895996499E+04   -0.16500E-05   -0.45422E-06  5918   0.401E-03    0.197E-03
DAV:   5    -0.156895996620E+04   -0.12166E-05   -0.20577E-06  5882   0.249E-03
  47 F= -.15689600E+04 E0= -.15689552E+04  d E =0.181210E-04
       N       E                     dE             d eps       ncg     rms          rms(c)
DAV:   1    -0.156895998508E+04   -0.20093E-04   -0.32392E-03 11392   0.744E-02    0.666E-03
DAV:   2    -0.156895998505E+04    0.31783E-07   -0.14666E-05  6090   0.616E-03    0.485E-03
DAV:   3    -0.156895998481E+04    0.23903E-06   -0.46406E-06  5876   0.350E-03    0.320E-03
DAV:   4    -0.156895998424E+04    0.56511E-06   -0.28453E-06  5864   0.311E-03    0.749E-04
DAV:   5    -0.156895998434E+04   -0.92015E-07   -0.12791E-06  5846   0.194E-03
  48 F= -.15689600E+04 E0= -.15689552E+04  d E =-.181326E-04
       N       E                     dE             d eps       ncg     rms          rms(c)
DAV:   1    -0.156896001840E+04   -0.34159E-04   -0.23899E-02 11368   0.202E-01    0.178E-02
DAV:   2    -0.156896003069E+04   -0.12284E-04   -0.20716E-04 16392   0.172E-02    0.138E-02
DAV:   3    -0.156896002656E+04    0.41328E-05   -0.12638E-05  6914   0.629E-03    0.719E-03
DAV:   4    -0.156896002515E+04    0.14038E-05   -0.79484E-06  6504   0.652E-03    0.328E-03
DAV:   5    -0.156896002446E+04    0.69005E-06   -0.26971E-06  5936   0.409E-03
  49 F= -.15689600E+04 E0= -.15689552E+04  d E =-.401245E-04
       N       E                     dE             d eps       ncg     rms          rms(c)
DAV:   1    -0.156896003848E+04   -0.13327E-04   -0.15472E-02 11368   0.162E-01    0.140E-02
DAV:   2    -0.156896004713E+04   -0.86543E-05   -0.13398E-04 15880   0.139E-02    0.109E-02
DAV:   3    -0.156896004548E+04    0.16565E-05   -0.78742E-06  6394   0.521E-03    0.717E-03
DAV:   4    -0.156896004418E+04    0.13011E-05   -0.60064E-06  6032   0.513E-03    0.277E-03
DAV:   5    -0.156896004383E+04    0.34277E-06   -0.22319E-06  5900   0.342E-03
  50 F= -.15689600E+04 E0= -.15689552E+04  d E =-.193712E-04
       N       E                     dE             d eps       ncg     rms          rms(c)
DAV:   1    -0.156896004644E+04   -0.22682E-05   -0.21782E-02 11368   0.193E-01    0.167E-02
DAV:   2    -0.156896005801E+04   -0.11571E-04   -0.18661E-04 16328   0.165E-02    0.129E-02
DAV:   3    -0.156896005521E+04    0.28041E-05   -0.10681E-05  6836   0.606E-03    0.814E-03
DAV:   4    -0.156896005358E+04    0.16260E-05   -0.81552E-06  6464   0.624E-03    0.343E-03
DAV:   5    -0.156896005296E+04    0.62484E-06   -0.31198E-06  6040   0.420E-03
  51 F= -.15689601E+04 E0= -.15689553E+04  d E =-.912677E-05
