       N       E                     dE             d eps       ncg     rms          rms(c)
DAV:   1     0.271022668354E+04    0.27102E+04   -0.31574E+05 12492   0.145E+03
DAV:   2    -0.118744917274E+04   -0.38977E+04   -0.37245E+04 14234   0.343E+02
DAV:   3    -0.170245357253E+04   -0.51500E+03   -0.49003E+03 19048   0.833E+01
DAV:   4    -0.172810644442E+04   -0.25653E+02   -0.24925E+02 17392   0.186E+01
DAV:   5    -0.172919115581E+04   -0.10847E+01   -0.10681E+01 19536   0.391E+00    0.463E+01
DAV:   6    -0.166977170594E+04    0.59419E+02   -0.99140E+01 17760   0.129E+01    0.237E+01
DAV:   7    -0.165123587607E+04    0.18536E+02   -0.61765E+01 16528   0.121E+01    0.103E+01
DAV:   8    -0.164580693519E+04    0.54289E+01   -0.24730E+01 17312   0.966E+00    0.312E+00
DAV:   9    -0.164566453448E+04    0.14240E+00   -0.67737E+00 18152   0.416E+00    0.181E+00
DAV:  10    -0.164563114573E+04    0.33389E-01   -0.95948E-01 16160   0.151E+00    0.123E+00
DAV:  11    -0.164560614045E+04    0.25005E-01   -0.35750E-01 17424   0.753E-01    0.621E-01
DAV:  12    -0.164559458937E+04    0.11551E-01   -0.50507E-02 17552   0.337E-01    0.273E-01
DAV:  13    -0.164559237093E+04    0.22184E-02   -0.15432E-02 18040   0.168E-01    0.811E-02
DAV:  14    -0.164559243206E+04   -0.61137E-04   -0.29336E-03 15040   0.836E-02    0.369E-02
DAV:  15    -0.164559243896E+04   -0.68982E-05   -0.48836E-04 15328   0.407E-02    0.191E-02
DAV:  16    -0.164559242445E+04    0.14513E-04   -0.12013E-04 15784   0.177E-02    0.107E-02
DAV:  17    -0.164559241143E+04    0.13022E-04   -0.25424E-05  8984   0.898E-03    0.464E-03
DAV:  18    -0.164559240106E+04    0.10364E-04   -0.12051E-05  8208   0.503E-03    0.215E-03
DAV:  19    -0.164559239938E+04    0.16814E-05   -0.41882E-06  8008   0.491E-03
   1 F= -.16455924E+04 E0= -.16455953E+04  d E =-.164559E+04
       N       E                     dE             d eps       ncg     rms          rms(c)
DAV:   1    -0.164617848975E+04   -0.58609E+00   -0.18050E+02 12460   0.170E+01    0.285E+00
DAV:   2    -0.164607759438E+04    0.10090E+00   -0.33781E+00 17640   0.245E+00    0.156E+00
DAV:   3    -0.164601672592E+04    0.60868E-01   -0.49321E-01 16864   0.107E+00    0.100E+00
DAV:   4    -0.164598499641E+04    0.31730E-01   -0.14245E-01 16344   0.709E-01    0.436E-01
DAV:   5    -0.164598004952E+04    0.49469E-02   -0.56638E-02 15760   0.437E-01    0.184E-01
DAV:   6    -0.164598012534E+04   -0.75816E-04   -0.11446E-02 15592   0.177E-01    0.124E-01
DAV:   7    -0.164598009709E+04    0.28244E-04   -0.30677E-03 17568   0.714E-02    0.673E-02
DAV:   8    -0.164598013378E+04   -0.36689E-04   -0.64219E-04 15312   0.390E-02    0.258E-02
DAV:   9    -0.164598011183E+04    0.21951E-04   -0.14900E-04 15904   0.216E-02    0.129E-02
DAV:  10    -0.164598010782E+04    0.40130E-05   -0.66782E-05 14128   0.117E-02
   2 F= -.16459801E+04 E0= -.16459905E+04  d E =-.387708E+00
       N       E                     dE             d eps       ncg     rms          rms(c)
DAV:   1    -0.164642198364E+04   -0.44187E+00   -0.18688E+01 12460   0.678E+00    0.230E+00
DAV:   2    -0.164616889198E+04    0.25309E+00   -0.36306E-01 13352   0.879E-01    0.110E+00
DAV:   3    -0.164610357645E+04    0.65316E-01   -0.17094E-01 14795   0.624E-01    0.306E-01
DAV:   4    -0.164609916609E+04    0.44104E-02   -0.29710E-02 15800   0.294E-01    0.106E-01
DAV:   5    -0.164609900955E+04    0.15654E-03   -0.71247E-03 15683   0.162E-01    0.560E-02
DAV:   6    -0.164609922301E+04   -0.21346E-03   -0.16817E-03 16056   0.671E-02    0.373E-02
DAV:   7    -0.164609938793E+04   -0.16492E-03   -0.43320E-04 17200   0.286E-02    0.245E-02
DAV:   8    -0.164609945943E+04   -0.71504E-04   -0.10244E-04 14280   0.141E-02    0.109E-02
DAV:   9    -0.164609949293E+04   -0.33501E-04   -0.44476E-05 10760   0.882E-03    0.445E-03
DAV:  10    -0.164609949668E+04   -0.37493E-05   -0.84749E-06  7552   0.538E-03
   3 F= -.16460995E+04 E0= -.16461037E+04  d E =-.119389E+00
       N       E                     dE             d eps       ncg     rms          rms(c)
DAV:   1    -0.164631063586E+04   -0.21114E+00   -0.62811E+00 12460   0.361E+00    0.101E+00
DAV:   2    -0.164626727393E+04    0.43362E-01   -0.95469E-02 15952   0.455E-01    0.514E-01
DAV:   3    -0.164625441424E+04    0.12860E-01   -0.39820E-02 15744   0.316E-01    0.218E-01
DAV:   4    -0.164625109858E+04    0.33157E-02   -0.14228E-02 16064   0.246E-01    0.632E-02
DAV:   5    -0.164625110551E+04   -0.69335E-05   -0.40189E-03 16232   0.103E-01    0.426E-02
DAV:   6    -0.164625113717E+04   -0.31658E-04   -0.59050E-04 15848   0.380E-02    0.271E-02
DAV:   7    -0.164625116903E+04   -0.31864E-04   -0.17981E-04 17352   0.166E-02    0.147E-02
DAV:   8    -0.164625116976E+04   -0.72283E-06   -0.31398E-05  9368   0.876E-03
   4 F= -.16462512E+04 E0= -.16462578E+04  d E =-.151673E+00
       N       E                     dE             d eps       ncg     rms          rms(c)
DAV:   1    -0.164625312625E+04   -0.19572E-02   -0.54972E-01 12545   0.927E-01    0.126E-01
DAV:   2    -0.164625347086E+04   -0.34461E-03   -0.97509E-03 17720   0.141E-01    0.745E-02
DAV:   3    -0.164625339270E+04    0.78159E-04   -0.12583E-03 17555   0.578E-02    0.529E-02
DAV:   4    -0.164625334896E+04    0.43744E-04   -0.30424E-04 17928   0.333E-02    0.285E-02
DAV:   5    -0.164625333825E+04    0.10708E-04   -0.15131E-04 15312   0.194E-02    0.715E-03
DAV:   6    -0.164625333715E+04    0.10956E-05   -0.18323E-05  8376   0.677E-03
   5 F= -.16462533E+04 E0= -.16462601E+04  d E =-.216740E-02
       N       E                     dE             d eps       ncg     rms          rms(c)
DAV:   1    -0.164625368003E+04   -0.34178E-03   -0.46585E-02 12657   0.273E-01    0.428E-02
DAV:   2    -0.164625369718E+04   -0.17150E-04   -0.80929E-04 17624   0.429E-02    0.239E-02
DAV:   3    -0.164625369261E+04    0.45647E-05   -0.12117E-04 16283   0.190E-02    0.164E-02
DAV:   4    -0.164625369356E+04   -0.94576E-06   -0.28298E-05  9776   0.111E-02    0.815E-03
DAV:   5    -0.164625369902E+04   -0.54618E-05   -0.13729E-05  7560   0.653E-03
   6 F= -.16462537E+04 E0= -.16462603E+04  d E =-.361867E-03
       N       E                     dE             d eps       ncg     rms          rms(c)
DAV:   1    -0.164625380926E+04   -0.11570E-03   -0.15388E-02 12660   0.156E-01    0.199E-02
DAV:   2    -0.164625380250E+04    0.67663E-05   -0.16501E-04 16200   0.240E-02    0.133E-02
DAV:   3    -0.164625379375E+04    0.87436E-05   -0.27953E-05  9987   0.109E-02    0.975E-03
DAV:   4    -0.164625378338E+04    0.10369E-04   -0.15861E-05  7216   0.658E-03    0.194E-03
DAV:   5    -0.164625378290E+04    0.48131E-06   -0.41373E-06  6992   0.411E-03
   7 F= -.16462538E+04 E0= -.16462604E+04  d E =-.838799E-04
       N       E                     dE             d eps       ncg     rms          rms(c)
DAV:   1    -0.164625380106E+04   -0.17680E-04   -0.22869E-03 12734   0.661E-02    0.169E-02
DAV:   2    -0.164625380402E+04   -0.29557E-05   -0.22938E-05  8520   0.840E-03    0.896E-03
DAV:   3    -0.164625381202E+04   -0.80040E-05   -0.13569E-05  7235   0.706E-03    0.333E-03
DAV:   4    -0.164625381612E+04   -0.40988E-05   -0.56297E-06  6816   0.583E-03    0.123E-03
DAV:   5    -0.164625381760E+04   -0.14751E-05   -0.22910E-06  6728   0.280E-03
   8 F= -.16462538E+04 E0= -.16462604E+04  d E =-.346948E-04
       N       E                     dE             d eps       ncg     rms          rms(c)
DAV:   1    -0.164625386698E+04   -0.50856E-04   -0.24394E-03 12660   0.641E-02    0.119E-02
DAV:   2    -0.164625385359E+04    0.13382E-04   -0.20611E-05  9088   0.877E-03    0.683E-03
DAV:   3    -0.164625384785E+04    0.57482E-05   -0.72670E-06  7067   0.629E-03    0.404E-03
DAV:   4    -0.164625384190E+04    0.59513E-05   -0.49220E-06  6680   0.454E-03    0.103E-03
DAV:   5    -0.164625384160E+04    0.30004E-06   -0.19214E-06  6680   0.286E-03
   9 F= -.16462538E+04 E0= -.16462605E+04  d E =-.239995E-04
       N       E                     dE             d eps       ncg     rms          rms(c)
DAV:   1    -0.164625385740E+04   -0.15501E-04   -0.20737E-03 12660   0.568E-02    0.635E-03
DAV:   2    -0.164625385928E+04   -0.18867E-05   -0.13536E-05  7104   0.680E-03    0.449E-03
DAV:   3    -0.164625385987E+04   -0.58171E-06   -0.41769E-06  6784   0.413E-03    0.305E-03
DAV:   4    -0.164625386135E+04   -0.14823E-05   -0.30854E-06  6656   0.315E-03    0.601E-04
DAV:   5    -0.164625386126E+04    0.92091E-07   -0.13912E-06  6656   0.223E-03
  10 F= -.16462539E+04 E0= -.16462605E+04  d E =-.196601E-04
       N       E                     dE             d eps       ncg     rms          rms(c)
DAV:   1    -0.164625387655E+04   -0.15198E-04   -0.15129E-03 12608   0.490E-02    0.666E-03
DAV:   2    -0.164625387200E+04    0.45451E-05   -0.10595E-05  7177   0.569E-03    0.424E-03
DAV:   3    -0.164625386942E+04    0.25768E-05   -0.39002E-06  6607   0.377E-03    0.232E-03
DAV:   4    -0.164625386701E+04    0.24130E-05   -0.23082E-06  6626   0.300E-03    0.623E-04
DAV:   5    -0.164625386711E+04   -0.98326E-07   -0.11725E-06  6626   0.203E-03
  11 F= -.16462539E+04 E0= -.16462605E+04  d E =-.585389E-05
       N       E                     dE             d eps       ncg     rms          rms(c)
DAV:   1    -0.164625386825E+04   -0.12424E-05   -0.12632E-04 12412   0.159E-02    0.455E-03
DAV:   2    -0.164625387144E+04   -0.31882E-05   -0.19613E-06  6554   0.217E-03    0.230E-03
DAV:   3    -0.164625387473E+04   -0.32931E-05   -0.11802E-06  6546   0.160E-03    0.521E-04
DAV:   4    -0.164625387557E+04   -0.83760E-06   -0.39302E-07  6530   0.116E-03    0.258E-04
DAV:   5    -0.164625387590E+04   -0.33201E-06   -0.19777E-07  6530   0.708E-04
  12 F= -.16462539E+04 E0= -.16462605E+04  d E =-.879505E-05
       N       E                     dE             d eps       ncg     rms          rms(c)
DAV:   1    -0.164625388435E+04   -0.87734E-05   -0.86185E-04 12576   0.366E-02    0.392E-03
DAV:   2    -0.164625388369E+04    0.65510E-06   -0.49205E-06  6530   0.380E-03    0.280E-03
DAV:   3    -0.164625388307E+04    0.61856E-06   -0.16139E-06  6514   0.218E-03    0.135E-03
DAV:   4    -0.164625388251E+04    0.55835E-06   -0.93789E-07  6491   0.180E-03    0.352E-04
DAV:   5    -0.164625388268E+04   -0.16418E-06   -0.47118E-07  6483   0.124E-03
  13 F= -.16462539E+04 E0= -.16462605E+04  d E =-.677355E-05
       N       E                     dE             d eps       ncg     rms          rms(c)
DAV:   1    -0.164625388870E+04   -0.61876E-05   -0.17958E-03 12576   0.529E-02    0.586E-03
DAV:   2    -0.164625389097E+04   -0.22690E-05   -0.10506E-05  7305   0.544E-03    0.411E-03
DAV:   3    -0.164625389286E+04   -0.18847E-05   -0.39366E-06  6713   0.312E-03    0.103E-03
DAV:   4    -0.164625389356E+04   -0.70421E-06   -0.17461E-06  6500   0.244E-03    0.449E-04
DAV:   5    -0.164625389346E+04    0.10314E-06   -0.94985E-07  6492   0.172E-03
  14 F= -.16462539E+04 E0= -.16462605E+04  d E =-.107781E-04
       N       E                     dE             d eps       ncg     rms          rms(c)
DAV:   1    -0.164625389605E+04   -0.24935E-05   -0.15902E-04 12352   0.171E-02    0.388E-03
DAV:   2    -0.164625389198E+04    0.40754E-05   -0.12095E-06  6428   0.178E-03    0.204E-03
DAV:   3    -0.164625388870E+04    0.32735E-05   -0.75271E-07  6420   0.118E-03    0.440E-04
DAV:   4    -0.164625388814E+04    0.55945E-06   -0.14775E-07  6404   0.797E-04    0.216E-04
DAV:   5    -0.164625388786E+04    0.28837E-06   -0.52426E-08  6404   0.360E-04
  15 F= -.16462539E+04 E0= -.16462605E+04  d E =0.560004E-05
       N       E                     dE             d eps       ncg     rms          rms(c)
DAV:   1    -0.164625389182E+04   -0.36769E-05   -0.63127E-04 12576   0.314E-02    0.329E-03
DAV:   2    -0.164625389270E+04   -0.87518E-06   -0.32695E-06  6404   0.305E-03    0.234E-03
DAV:   3    -0.164625389353E+04   -0.83360E-06   -0.12051E-06  6404   0.165E-03    0.395E-04
DAV:   4    -0.164625389371E+04   -0.17490E-06   -0.46957E-07  6404   0.119E-03    0.247E-04
DAV:   5    -0.164625389365E+04    0.52882E-07   -0.25256E-07  6404   0.859E-04
  16 F= -.16462539E+04 E0= -.16462605E+04  d E =-.579604E-05
       N       E                     dE             d eps       ncg     rms          rms(c)
DAV:   1    -0.164625389882E+04   -0.51112E-05   -0.11843E-03 12560   0.429E-02    0.451E-03
DAV:   2    -0.164625389827E+04    0.54772E-06   -0.66772E-06  6452   0.435E-03    0.325E-03
DAV:   3    -0.164625389714E+04    0.11242E-05   -0.26354E-06  6444   0.243E-03    0.484E-04
DAV:   4    -0.164625389716E+04   -0.11848E-07   -0.10701E-06  6452   0.173E-03    0.331E-04
DAV:   5    -0.164625389727E+04   -0.11746E-06   -0.59011E-07  6428   0.129E-03
  17 F= -.16462539E+04 E0= -.16462605E+04  d E =-.362152E-05
       N       E                     dE             d eps       ncg     rms          rms(c)
DAV:   1    -0.164625389314E+04    0.40211E-05   -0.21198E-04 12344   0.191E-02    0.372E-03
DAV:   2    -0.164625389569E+04   -0.25501E-05   -0.13567E-06  6404   0.191E-03    0.204E-03
DAV:   3    -0.164625389818E+04   -0.24933E-05   -0.70764E-07  6396   0.119E-03    0.528E-04
DAV:   4    -0.164625389874E+04   -0.56201E-06   -0.16566E-07  6404   0.841E-04    0.289E-04
DAV:   5    -0.164625389896E+04   -0.21887E-06   -0.55654E-08  6404   0.452E-04
  18 F= -.16462539E+04 E0= -.16462605E+04  d E =-.168566E-05
       N       E                     dE             d eps       ncg     rms          rms(c)
DAV:   1    -0.164625390368E+04   -0.49413E-05   -0.45582E-04 12528   0.268E-02    0.309E-03
DAV:   2    -0.164625390221E+04    0.14741E-05   -0.23824E-06  6380   0.260E-03    0.208E-03
DAV:   3    -0.164625390058E+04    0.16296E-05   -0.88137E-07  6380   0.138E-03    0.433E-04
DAV:   4    -0.164625390037E+04    0.20549E-06   -0.32253E-07  6380   0.971E-04    0.229E-04
DAV:   5    -0.164625390042E+04   -0.47476E-07   -0.16367E-07  6380   0.693E-04
  19 F= -.16462539E+04 E0= -.16462605E+04  d E =-.146065E-05
       N       E                     dE             d eps       ncg     rms          rms(c)
DAV:   1    -0.164625390183E+04   -0.14541E-05   -0.26864E-04 12416   0.204E-02    0.216E-03
DAV:   2    -0.164625390208E+04   -0.24927E-06   -0.16519E-06  6380   0.217E-03    0.157E-03
DAV:   3    -0.164625390228E+04   -0.20509E-06   -0.70532E-07  6380   0.124E-03    0.250E-04
DAV:   4    -0.164625390230E+04   -0.20287E-07   -0.28203E-07  6380   0.820E-04    0.141E-04
DAV:   5    -0.164625390231E+04   -0.61214E-08   -0.15694E-07  6380   0.625E-04
  20 F= -.16462539E+04 E0= -.16462605E+04  d E =-.188741E-05
       N       E                     dE             d eps       ncg     rms          rms(c)
DAV:   1    -0.164625390475E+04   -0.24495E-05   -0.47733E-05 11664   0.953E-03    0.240E-03
DAV:   2    -0.164625390235E+04    0.24006E-05   -0.82288E-07  6396   0.145E-03    0.121E-03
DAV:   3    -0.164625390048E+04    0.18744E-05   -0.35351E-07  6380   0.888E-04    0.315E-04
DAV:   4    -0.164625390007E+04    0.41033E-06   -0.11342E-07  6380   0.673E-04    0.170E-04
DAV:   5    -0.164625389989E+04    0.17830E-06   -0.54546E-08  6380   0.399E-04
  21 F= -.16462539E+04 E0= -.16462606E+04  d E =0.242017E-05
       N       E                     dE             d eps       ncg     rms          rms(c)
DAV:   1    -0.164625389918E+04    0.88682E-06   -0.30954E-05  8488   0.772E-03    0.171E-03
DAV:   2    -0.164625390071E+04   -0.15325E-05   -0.13747E-06  6380   0.207E-03    0.894E-04
DAV:   3    -0.164625390211E+04   -0.14031E-05   -0.25607E-07  6380   0.736E-04    0.302E-04
DAV:   4    -0.164625390250E+04   -0.38195E-06   -0.77111E-08  6380   0.537E-04    0.123E-04
DAV:   5    -0.164625390260E+04   -0.10800E-06   -0.34922E-08  6380   0.305E-04
  22 F= -.16462539E+04 E0= -.16462605E+04  d E =-.271702E-05
       N       E                     dE             d eps       ncg     rms          rms(c)
DAV:   1    -0.164625390321E+04   -0.71597E-06   -0.73501E-05 12104   0.107E-02    0.114E-03
DAV:   2    -0.164625390321E+04    0.40131E-08   -0.56283E-07  6380   0.119E-03    0.803E-04
DAV:   3    -0.164625390313E+04    0.75594E-07   -0.20497E-07  6380   0.649E-04    0.162E-04
DAV:   4    -0.164625390315E+04   -0.14231E-07   -0.75068E-08  6380   0.414E-04    0.687E-05
DAV:   5    -0.164625390315E+04   -0.45698E-08   -0.40249E-08  6380   0.304E-04
  23 F= -.16462539E+04 E0= -.16462606E+04  d E =-.547162E-06
