       N       E                     dE             d eps       ncg     rms          rms(c)
DAV:   1     0.271903812887E+04    0.27190E+04   -0.31600E+05 12500   0.145E+03
DAV:   2    -0.119112356178E+04   -0.39102E+04   -0.37415E+04 14274   0.344E+02
DAV:   3    -0.170489150257E+04   -0.51377E+03   -0.48922E+03 19120   0.832E+01
DAV:   4    -0.173049895950E+04   -0.25607E+02   -0.24891E+02 17552   0.186E+01
DAV:   5    -0.173154026715E+04   -0.10413E+01   -0.10252E+01 19608   0.380E+00    0.467E+01
DAV:   6    -0.167279348375E+04    0.58747E+02   -0.14019E+02 18368   0.175E+01    0.248E+01
DAV:   7    -0.165785182245E+04    0.14942E+02   -0.96789E+01 19688   0.175E+01    0.164E+01
DAV:   8    -0.164544438853E+04    0.12407E+02   -0.52896E+01 17944   0.126E+01    0.407E+00
DAV:   9    -0.164523106143E+04    0.21333E+00   -0.12386E+01 16528   0.555E+00    0.213E+00
DAV:  10    -0.164524930209E+04   -0.18241E-01   -0.17562E+00 16912   0.180E+00    0.142E+00
DAV:  11    -0.164519407463E+04    0.55227E-01   -0.31739E-01 16544   0.788E-01    0.596E-01
DAV:  12    -0.164518531856E+04    0.87561E-02   -0.61665E-02 16976   0.427E-01    0.258E-01
DAV:  13    -0.164518385111E+04    0.14675E-02   -0.13621E-02 16096   0.224E-01    0.124E-01
DAV:  14    -0.164518365517E+04    0.19593E-03   -0.38114E-03 15904   0.983E-02    0.647E-02
DAV:  15    -0.164518367807E+04   -0.22895E-04   -0.17395E-03 17592   0.540E-02    0.311E-02
DAV:  16    -0.164518366442E+04    0.13645E-04   -0.20660E-04 17304   0.227E-02    0.113E-02
DAV:  17    -0.164518365818E+04    0.62429E-05   -0.41604E-05 10960   0.118E-02
   1 F= -.16451837E+04 E0= -.16451835E+04  d E =-.164518E+04
       N       E                     dE             d eps       ncg     rms          rms(c)
DAV:   1    -0.164583004104E+04   -0.64638E+00   -0.15886E+02 12460   0.158E+01    0.249E+00
DAV:   2    -0.164578013154E+04    0.49909E-01   -0.30176E+00 17208   0.258E+00    0.143E+00
DAV:   3    -0.164571918796E+04    0.60944E-01   -0.58453E-01 17536   0.130E+00    0.103E+00
DAV:   4    -0.164568856468E+04    0.30623E-01   -0.14209E-01 17448   0.710E-01    0.539E-01
DAV:   5    -0.164568094060E+04    0.76241E-02   -0.74837E-02 15552   0.433E-01    0.177E-01
DAV:   6    -0.164568104885E+04   -0.10825E-03   -0.10624E-02 16392   0.154E-01    0.119E-01
DAV:   7    -0.164568090797E+04    0.14088E-03   -0.22363E-03 15728   0.657E-02    0.631E-02
DAV:   8    -0.164568093877E+04   -0.30805E-04   -0.74812E-04 15336   0.432E-02    0.262E-02
DAV:   9    -0.164568091434E+04    0.24437E-04   -0.14349E-04 15664   0.242E-02    0.146E-02
DAV:  10    -0.164568090721E+04    0.71317E-05   -0.61992E-05 12888   0.104E-02
   2 F= -.16456809E+04 E0= -.16456884E+04  d E =-.497249E+00
       N       E                     dE             d eps       ncg     rms          rms(c)
DAV:   1    -0.164595961313E+04   -0.27870E+00   -0.16101E+01 12460   0.618E+00    0.201E+00
DAV:   2    -0.164577238056E+04    0.18723E+00   -0.29362E-01 14224   0.809E-01    0.977E-01
DAV:   3    -0.164572461798E+04    0.47763E-01   -0.13512E-01 14857   0.594E-01    0.382E-01
DAV:   4    -0.164571652777E+04    0.80902E-02   -0.43106E-02 15272   0.431E-01    0.122E-01
DAV:   5    -0.164571649163E+04    0.36138E-04   -0.13106E-02 15526   0.199E-01    0.638E-02
DAV:   6    -0.164571676961E+04   -0.27798E-03   -0.21209E-03 16728   0.644E-02    0.435E-02
DAV:   7    -0.164571689071E+04   -0.12110E-03   -0.33666E-04 16744   0.242E-02    0.234E-02
DAV:   8    -0.164571697063E+04   -0.79918E-04   -0.97465E-05 14528   0.150E-02    0.111E-02
DAV:   9    -0.164571699103E+04   -0.20401E-04   -0.32146E-05  9448   0.913E-03    0.531E-03
DAV:  10    -0.164571700186E+04   -0.10826E-04   -0.18022E-05  7536   0.620E-03    0.354E-03
DAV:  11    -0.164571700178E+04    0.80093E-07   -0.50773E-06  7256   0.501E-03
   3 F= -.16457170E+04 E0= -.16457183E+04  d E =-.360946E-01
       N       E                     dE             d eps       ncg     rms          rms(c)
DAV:   1    -0.164595391137E+04   -0.23691E+00   -0.76913E+00 12460   0.393E+00    0.105E+00
DAV:   2    -0.164590807681E+04    0.45835E-01   -0.11748E-01 15800   0.634E-01    0.560E-01
DAV:   3    -0.164589596455E+04    0.12112E-01   -0.56209E-02 16472   0.431E-01    0.366E-01
DAV:   4    -0.164588769252E+04    0.82720E-02   -0.31686E-02 15984   0.341E-01    0.653E-02
DAV:   5    -0.164588791741E+04   -0.22488E-03   -0.58670E-03 14816   0.119E-01    0.506E-02
DAV:   6    -0.164588796474E+04   -0.47335E-04   -0.72871E-04 16440   0.391E-02    0.326E-02
DAV:   7    -0.164588798442E+04   -0.19680E-04   -0.16693E-04 16416   0.174E-02    0.172E-02
DAV:   8    -0.164588798332E+04    0.11034E-05   -0.59570E-05 13864   0.126E-02
   4 F= -.16458880E+04 E0= -.16458924E+04  d E =-.170982E+00
       N       E                     dE             d eps       ncg     rms          rms(c)
DAV:   1    -0.164589646088E+04   -0.84765E-02   -0.14015E+00 12490   0.148E+00    0.173E-01
DAV:   2    -0.164589708015E+04   -0.61927E-03   -0.16691E-02 16000   0.245E-01    0.118E-01
DAV:   3    -0.164589662883E+04    0.45132E-03   -0.35748E-03 17903   0.108E-01    0.882E-02
DAV:   4    -0.164589643071E+04    0.19812E-03   -0.10504E-03 16592   0.539E-02    0.300E-02
DAV:   5    -0.164589642785E+04    0.28596E-05   -0.28638E-04 15016   0.249E-02    0.124E-02
DAV:   6    -0.164589642197E+04    0.58776E-05   -0.34344E-05 10064   0.947E-03
   5 F= -.16458964E+04 E0= -.16459009E+04  d E =-.843865E-02
       N       E                     dE             d eps       ncg     rms          rms(c)
DAV:   1    -0.164589852124E+04   -0.20934E-02   -0.46135E-01 12505   0.852E-01    0.960E-02
DAV:   2    -0.164589876612E+04   -0.24489E-03   -0.52425E-03 15848   0.150E-01    0.675E-02
DAV:   3    -0.164589860476E+04    0.16136E-03   -0.11135E-03 18925   0.616E-02    0.508E-02
DAV:   4    -0.164589853525E+04    0.69515E-04   -0.38773E-04 15808   0.317E-02    0.136E-02
DAV:   5    -0.164589853338E+04    0.18659E-05   -0.69365E-05 13400   0.128E-02
   6 F= -.16458985E+04 E0= -.16459030E+04  d E =-.211141E-02
       N       E                     dE             d eps       ncg     rms          rms(c)
DAV:   1    -0.164589889249E+04   -0.35724E-03   -0.80330E-02 12608   0.377E-01    0.796E-02
DAV:   2    -0.164589862564E+04    0.26685E-03   -0.12192E-03 15504   0.664E-02    0.435E-02
DAV:   3    -0.164589853234E+04    0.93302E-04   -0.39345E-04 16232   0.377E-02    0.300E-02
DAV:   4    -0.164589845233E+04    0.80010E-04   -0.16900E-04 15832   0.243E-02    0.809E-03
DAV:   5    -0.164589844246E+04    0.98653E-05   -0.36371E-05  9808   0.951E-03
   7 F= -.16458984E+04 E0= -.16459032E+04  d E =0.909184E-04
       N       E                     dE             d eps       ncg     rms          rms(c)
DAV:   1    -0.164589906875E+04   -0.61642E-03   -0.16846E-02 12618   0.199E-01    0.643E-02
DAV:   2    -0.164589894084E+04    0.12791E-03   -0.25278E-04 13832   0.237E-02    0.319E-02
DAV:   3    -0.164589893386E+04    0.69790E-05   -0.13382E-04 14737   0.186E-02    0.105E-02
DAV:   4    -0.164589894219E+04   -0.83332E-05   -0.33122E-05 10368   0.127E-02    0.323E-03
DAV:   5    -0.164589894664E+04   -0.44462E-05   -0.98441E-06  7016   0.649E-03
   8 F= -.16458989E+04 E0= -.16459035E+04  d E =-.504179E-03
       N       E                     dE             d eps       ncg     rms          rms(c)
DAV:   1    -0.164589904272E+04   -0.10052E-03   -0.99610E-03 12618   0.129E-01    0.197E-02
DAV:   2    -0.164589903188E+04    0.10840E-04   -0.12313E-04 15720   0.204E-02    0.123E-02
DAV:   3    -0.164589902404E+04    0.78342E-05   -0.24795E-05  9752   0.101E-02    0.891E-03
DAV:   4    -0.164589901326E+04    0.10782E-04   -0.14242E-05  7128   0.647E-03    0.181E-03
DAV:   5    -0.164589901301E+04    0.24692E-06   -0.40291E-06  6808   0.414E-03
   9 F= -.16458990E+04 E0= -.16459036E+04  d E =-.663727E-04
       N       E                     dE             d eps       ncg     rms          rms(c)
DAV:   1    -0.164589903653E+04   -0.23273E-04   -0.27982E-03 12618   0.673E-02    0.848E-03
DAV:   2    -0.164589903614E+04    0.39632E-06   -0.22798E-05  9392   0.976E-03    0.556E-03
DAV:   3    -0.164589903567E+04    0.46316E-06   -0.57185E-06  6960   0.576E-03    0.398E-03
DAV:   4    -0.164589903514E+04    0.53174E-06   -0.37963E-06  6680   0.357E-03    0.753E-04
DAV:   5    -0.164589903536E+04   -0.21652E-06   -0.17439E-06  6680   0.247E-03
  10 F= -.16458990E+04 E0= -.16459036E+04  d E =-.223449E-04
       N       E                     dE             d eps       ncg     rms          rms(c)
DAV:   1    -0.164589904499E+04   -0.98489E-05   -0.18835E-03 12618   0.548E-02    0.689E-03
DAV:   2    -0.164589904794E+04   -0.29476E-05   -0.13569E-05  7104   0.713E-03    0.454E-03
DAV:   3    -0.164589904916E+04   -0.12246E-05   -0.40633E-06  6672   0.437E-03    0.296E-03
DAV:   4    -0.164589905146E+04   -0.22969E-05   -0.27952E-06  6680   0.319E-03    0.580E-04
DAV:   5    -0.164589905154E+04   -0.77554E-07   -0.13244E-06  6680   0.221E-03
  11 F= -.16458991E+04 E0= -.16459036E+04  d E =-.161790E-04
       N       E                     dE             d eps       ncg     rms          rms(c)
DAV:   1    -0.164589906254E+04   -0.11084E-04   -0.27025E-04 12610   0.232E-02    0.642E-03
DAV:   2    -0.164589905513E+04    0.74147E-05   -0.37327E-06  6656   0.341E-03    0.331E-03
DAV:   3    -0.164589905135E+04    0.37744E-05   -0.19129E-06  6601   0.298E-03    0.167E-03
DAV:   4    -0.164589904874E+04    0.26128E-05   -0.10943E-06  6515   0.233E-03    0.439E-04
DAV:   5    -0.164589904827E+04    0.47329E-06   -0.49329E-07  6515   0.132E-03
  12 F= -.16458990E+04 E0= -.16459036E+04  d E =0.326878E-05
       N       E                     dE             d eps       ncg     rms          rms(c)
DAV:   1    -0.164589905263E+04   -0.38834E-05   -0.56114E-04 12618   0.303E-02    0.447E-03
DAV:   2    -0.164589905508E+04   -0.24596E-05   -0.39324E-06  6491   0.337E-03    0.279E-03
DAV:   3    -0.164589905758E+04   -0.24992E-05   -0.16752E-06  6483   0.218E-03    0.790E-04
DAV:   4    -0.164589905831E+04   -0.72855E-06   -0.72273E-07  6491   0.171E-03    0.357E-04
DAV:   5    -0.164589905835E+04   -0.41922E-07   -0.38630E-07  6491   0.113E-03
  13 F= -.16458991E+04 E0= -.16459036E+04  d E =-.100860E-04
       N       E                     dE             d eps       ncg     rms          rms(c)
DAV:   1    -0.164589906326E+04   -0.49478E-05   -0.55231E-04 12602   0.294E-02    0.323E-03
DAV:   2    -0.164589906304E+04    0.21571E-06   -0.35038E-06  6491   0.326E-03    0.230E-03
DAV:   3    -0.164589906283E+04    0.20998E-06   -0.11755E-06  6491   0.194E-03    0.125E-03
DAV:   4    -0.164589906256E+04    0.27450E-06   -0.73840E-07  6491   0.159E-03    0.305E-04
DAV:   5    -0.164589906265E+04   -0.90369E-07   -0.37616E-07  6491   0.111E-03
  14 F= -.16458991E+04 E0= -.16459036E+04  d E =-.429606E-05
       N       E                     dE             d eps       ncg     rms          rms(c)
DAV:   1    -0.164589906951E+04   -0.69498E-05   -0.20292E-03 12560   0.563E-02    0.587E-03
DAV:   2    -0.164589906950E+04    0.84488E-08   -0.11701E-05  7792   0.585E-03    0.423E-03
DAV:   3    -0.164589906905E+04    0.45481E-06   -0.38363E-06  6632   0.329E-03    0.184E-03
DAV:   4    -0.164589906882E+04    0.22877E-06   -0.21211E-06  6593   0.271E-03    0.549E-04
DAV:   5    -0.164589906899E+04   -0.16701E-06   -0.10971E-06  6549   0.189E-03
  15 F= -.16458991E+04 E0= -.16459036E+04  d E =-.633442E-05
       N       E                     dE             d eps       ncg     rms          rms(c)
DAV:   1    -0.164589906681E+04    0.20103E-05   -0.12030E-04 12370   0.151E-02    0.372E-03
DAV:   2    -0.164589906947E+04   -0.26657E-05   -0.18150E-06  6467   0.218E-03    0.193E-03
DAV:   3    -0.164589907133E+04   -0.18577E-05   -0.86546E-07  6467   0.161E-03    0.906E-04
DAV:   4    -0.164589907260E+04   -0.12666E-05   -0.44054E-07  6467   0.124E-03    0.304E-04
DAV:   5    -0.164589907291E+04   -0.30969E-06   -0.22436E-07  6467   0.831E-04
  16 F= -.16458991E+04 E0= -.16459036E+04  d E =-.392231E-05
       N       E                     dE             d eps       ncg     rms          rms(c)
DAV:   1    -0.164589907888E+04   -0.62812E-05   -0.38940E-04 12528   0.252E-02    0.381E-03
DAV:   2    -0.164589907596E+04    0.29212E-05   -0.26605E-06  6467   0.276E-03    0.233E-03
DAV:   3    -0.164589907400E+04    0.19580E-05   -0.10727E-06  6459   0.177E-03    0.104E-03
DAV:   4    -0.164589907282E+04    0.11828E-05   -0.53612E-07  6467   0.142E-03    0.337E-04
DAV:   5    -0.164589907277E+04    0.46515E-07   -0.26844E-07  6459   0.955E-04
  17 F= -.16458991E+04 E0= -.16459036E+04  d E =0.137073E-06
       N       E                     dE             d eps       ncg     rms          rms(c)
DAV:   1    -0.164589907311E+04   -0.29508E-06   -0.73023E-05 12146   0.109E-02    0.143E-03
DAV:   2    -0.164589907349E+04   -0.37439E-06   -0.76783E-07  6467   0.144E-03    0.929E-04
DAV:   3    -0.164589907376E+04   -0.27264E-06   -0.27248E-07  6467   0.879E-04    0.426E-04
DAV:   4    -0.164589907397E+04   -0.20990E-06   -0.14836E-07  6454   0.667E-04    0.104E-04
DAV:   5    -0.164589907396E+04    0.10601E-07   -0.83638E-08  6428   0.497E-04
  18 F= -.16458991E+04 E0= -.16459036E+04  d E =-.118792E-05
       N       E                     dE             d eps       ncg     rms          rms(c)
DAV:   1    -0.164589907450E+04   -0.53273E-06   -0.67821E-05 12080   0.103E-02    0.115E-03
DAV:   2    -0.164589907456E+04   -0.63195E-07   -0.60143E-07  6404   0.126E-03    0.789E-04
DAV:   3    -0.164589907459E+04   -0.21774E-07   -0.19985E-07  6404   0.693E-04    0.185E-04
DAV:   4    -0.164589907460E+04   -0.16401E-07   -0.91442E-08  6404   0.512E-04    0.833E-05
DAV:   5    -0.164589907460E+04   -0.10536E-08   -0.51568E-08  6404   0.378E-04
  19 F= -.16458991E+04 E0= -.16459036E+04  d E =-.645755E-06
