       N       E                     dE             d eps       ncg     rms          rms(c)
DAV:   1     0.243762343805E+04    0.24376E+04   -0.30237E+05 12056   0.144E+03
DAV:   2    -0.120211697602E+04   -0.36397E+04   -0.34880E+04 13924   0.320E+02
DAV:   3    -0.166755916937E+04   -0.46544E+03   -0.43659E+03 18488   0.820E+01
DAV:   4    -0.169236984980E+04   -0.24811E+02   -0.23626E+02 16872   0.179E+01
DAV:   5    -0.169342485302E+04   -0.10550E+01   -0.10377E+01 18768   0.397E+00    0.437E+01
DAV:   6    -0.164415841784E+04    0.49266E+02   -0.15222E+02 18200   0.170E+01    0.239E+01
DAV:   7    -0.163097587088E+04    0.13183E+02   -0.97867E+01 18960   0.165E+01    0.171E+01
DAV:   8    -0.161893535536E+04    0.12041E+02   -0.58485E+01 17664   0.124E+01    0.754E+00
DAV:   9    -0.161606549977E+04    0.28699E+01   -0.20318E+01 17016   0.739E+00    0.232E+00
DAV:  10    -0.161612553770E+04   -0.60038E-01   -0.35130E+00 16728   0.266E+00    0.156E+00
DAV:  11    -0.161609545699E+04    0.30081E-01   -0.41836E-01 15840   0.972E-01    0.105E+00
DAV:  12    -0.161606457090E+04    0.30886E-01   -0.18371E-01 14544   0.683E-01    0.518E-01
DAV:  13    -0.161605667106E+04    0.78998E-02   -0.37582E-02 14624   0.338E-01    0.254E-01
DAV:  14    -0.161605491133E+04    0.17597E-02   -0.11748E-02 15192   0.163E-01    0.117E-01
DAV:  15    -0.161605456145E+04    0.34988E-03   -0.33150E-03 15048   0.915E-02    0.589E-02
DAV:  16    -0.161605455601E+04    0.54327E-05   -0.10835E-03 14712   0.504E-02    0.305E-02
DAV:  17    -0.161605455487E+04    0.11420E-05   -0.20087E-04 14712   0.237E-02    0.122E-02
DAV:  18    -0.161605455181E+04    0.30575E-05   -0.48394E-05 10944   0.133E-02
   1 F= -.16160546E+04 E0= -.16160532E+04  d E =-.161605E+04
       N       E                     dE             d eps       ncg     rms          rms(c)
DAV:   1    -0.161750476225E+04   -0.14502E+01   -0.62920E+02 12040   0.365E+01    0.121E+01
DAV:   2    -0.161112182705E+04    0.63829E+01   -0.23723E+01 16592   0.699E+00    0.612E+00
DAV:   3    -0.160969625349E+04    0.14256E+01   -0.11258E+01 18024   0.528E+00    0.444E+00
DAV:   4    -0.160872526897E+04    0.97098E+00   -0.42043E+00 18216   0.367E+00    0.253E+00
DAV:   5    -0.160839242291E+04    0.33285E+00   -0.23471E+00 16288   0.234E+00    0.786E-01
DAV:   6    -0.160838741320E+04    0.50097E-02   -0.37786E-01 15080   0.952E-01    0.529E-01
DAV:   7    -0.160838657480E+04    0.83840E-03   -0.67984E-02 16184   0.394E-01    0.378E-01
DAV:   8    -0.160838649056E+04    0.84241E-04   -0.25236E-02 16072   0.211E-01    0.191E-01
DAV:   9    -0.160838796240E+04   -0.14718E-02   -0.11269E-02 15496   0.139E-01    0.124E-01
DAV:  10    -0.160838743236E+04    0.53004E-03   -0.25260E-03 15536   0.861E-02    0.736E-02
DAV:  11    -0.160838724619E+04    0.18617E-03   -0.14859E-03 17344   0.536E-02    0.347E-02
DAV:  12    -0.160838730253E+04   -0.56338E-04   -0.67001E-04 17344   0.334E-02    0.298E-02
DAV:  13    -0.160838729830E+04    0.42238E-05   -0.11211E-04 14792   0.170E-02    0.152E-02
DAV:  14    -0.160838729845E+04   -0.15223E-06   -0.50374E-05 10840   0.981E-03
   2 F= -.16083873E+04 E0= -.16083840E+04  d E =0.766725E+01
       N       E                     dE             d eps       ncg     rms          rms(c)
DAV:   1    -0.162301611845E+04   -0.14629E+02   -0.24830E+02 12040   0.256E+01    0.876E+00
DAV:   2    -0.161940156585E+04    0.36146E+01   -0.70184E+00 14426   0.418E+00    0.415E+00
DAV:   3    -0.161876239416E+04    0.63917E+00   -0.33248E+00 15672   0.301E+00    0.272E+00
DAV:   4    -0.161833135813E+04    0.43104E+00   -0.15817E+00 16472   0.253E+00    0.121E+00
DAV:   5    -0.161825806513E+04    0.73293E-01   -0.68414E-01 15568   0.137E+00    0.386E-01
DAV:   6    -0.161826056221E+04   -0.24971E-02   -0.10565E-01 14464   0.525E-01    0.270E-01
DAV:   7    -0.161826164503E+04   -0.10828E-02   -0.17290E-02 16128   0.199E-01    0.181E-01
DAV:   8    -0.161826292384E+04   -0.12788E-02   -0.68576E-03 15368   0.115E-01    0.876E-02
DAV:   9    -0.161826367204E+04   -0.74820E-03   -0.21742E-03 13832   0.675E-02    0.498E-02
DAV:  10    -0.161826375987E+04   -0.87830E-04   -0.68577E-04 15640   0.397E-02    0.280E-02
DAV:  11    -0.161826384761E+04   -0.87732E-04   -0.29932E-04 15696   0.266E-02    0.207E-02
DAV:  12    -0.161826390381E+04   -0.56203E-04   -0.93102E-05 13632   0.143E-02    0.116E-02
DAV:  13    -0.161826389649E+04    0.73172E-05   -0.15927E-05  7464   0.615E-03
   3 F= -.16182639E+04 E0= -.16182670E+04  d E =-.987660E+01
       N       E                     dE             d eps       ncg     rms          rms(c)
DAV:   1    -0.161831564948E+04   -0.51746E-01   -0.93452E+00 12040   0.388E+00    0.489E-01
DAV:   2    -0.161832461285E+04   -0.89634E-02   -0.17029E-01 17168   0.658E-01    0.371E-01
DAV:   3    -0.161831806955E+04    0.65433E-02   -0.43958E-02 18288   0.368E-01    0.246E-01
DAV:   4    -0.161831681889E+04    0.12507E-02   -0.76644E-03 18224   0.142E-01    0.153E-01
DAV:   5    -0.161831620898E+04    0.60991E-03   -0.42867E-03 15472   0.101E-01    0.451E-02
DAV:   6    -0.161831616531E+04    0.43672E-04   -0.87341E-04 15872   0.512E-02    0.296E-02
DAV:   7    -0.161831613940E+04    0.25902E-04   -0.19537E-04 15648   0.242E-02    0.184E-02
DAV:   8    -0.161831613427E+04    0.51292E-05   -0.54578E-05 11528   0.107E-02
   4 F= -.16183161E+04 E0= -.16183199E+04  d E =-.522378E-01
       N       E                     dE             d eps       ncg     rms          rms(c)
DAV:   1    -0.161832458693E+04   -0.84475E-02   -0.14029E+00 12070   0.151E+00    0.173E-01
DAV:   2    -0.161832610842E+04   -0.15215E-02   -0.20735E-02 16776   0.266E-01    0.151E-01
DAV:   3    -0.161832469216E+04    0.14163E-02   -0.64945E-03 18010   0.148E-01    0.922E-02
DAV:   4    -0.161832451652E+04    0.17564E-03   -0.11774E-03 16680   0.523E-02    0.466E-02
DAV:   5    -0.161832448247E+04    0.34053E-04   -0.55748E-04 15120   0.367E-02    0.160E-02
DAV:   6    -0.161832447474E+04    0.77246E-05   -0.10993E-04 14768   0.191E-02    0.103E-02
DAV:   7    -0.161832446863E+04    0.61073E-05   -0.19901E-05  8008   0.837E-03
   5 F= -.16183245E+04 E0= -.16183284E+04  d E =-.833436E-02
       N       E                     dE             d eps       ncg     rms          rms(c)
DAV:   1    -0.161832658105E+04   -0.21063E-02   -0.19547E-01 12196   0.632E-01    0.171E-01
DAV:   2    -0.161832541584E+04    0.11652E-02   -0.48389E-03 16688   0.126E-01    0.998E-02
DAV:   3    -0.161832493156E+04    0.48427E-03   -0.26716E-03 17880   0.927E-02    0.691E-02
DAV:   4    -0.161832460041E+04    0.33116E-03   -0.84652E-04 16512   0.510E-02    0.274E-02
DAV:   5    -0.161832452483E+04    0.75574E-04   -0.32948E-04 15016   0.286E-02    0.987E-03
DAV:   6    -0.161832451837E+04    0.64595E-05   -0.49565E-05 11752   0.129E-02
   6 F= -.16183245E+04 E0= -.16183287E+04  d E =-.497383E-04
       N       E                     dE             d eps       ncg     rms          rms(c)
DAV:   1    -0.161832754359E+04   -0.30188E-02   -0.10777E-01 12196   0.464E-01    0.117E-01
DAV:   2    -0.161832709921E+04    0.44437E-03   -0.16965E-03 15496   0.667E-02    0.601E-02
DAV:   3    -0.161832704484E+04    0.54376E-04   -0.76522E-04 17088   0.476E-02    0.435E-02
DAV:   4    -0.161832697951E+04    0.65330E-04   -0.36312E-04 16792   0.355E-02    0.171E-02
DAV:   5    -0.161832699617E+04   -0.16662E-04   -0.13201E-04 14552   0.179E-02    0.657E-03
DAV:   6    -0.161832699718E+04   -0.10139E-05   -0.14971E-05  7216   0.687E-03
   7 F= -.16183270E+04 E0= -.16183311E+04  d E =-.247881E-02
       N       E                     dE             d eps       ncg     rms          rms(c)
DAV:   1    -0.161832753734E+04   -0.54117E-03   -0.63490E-02 12172   0.321E-01    0.404E-02
DAV:   2    -0.161832759489E+04   -0.57557E-04   -0.97036E-04 16808   0.611E-02    0.360E-02
DAV:   3    -0.161832750334E+04    0.91556E-04   -0.34911E-04 17436   0.349E-02    0.207E-02
DAV:   4    -0.161832748464E+04    0.18695E-04   -0.54329E-05 11992   0.120E-02    0.934E-03
DAV:   5    -0.161832747766E+04    0.69808E-05   -0.17236E-05  7552   0.831E-03
   8 F= -.16183275E+04 E0= -.16183316E+04  d E =-.480480E-03
       N       E                     dE             d eps       ncg     rms          rms(c)
DAV:   1    -0.161832764260E+04   -0.15796E-03   -0.28878E-02 12196   0.220E-01    0.310E-02
DAV:   2    -0.161832766520E+04   -0.22593E-04   -0.34872E-04 16288   0.327E-02    0.217E-02
DAV:   3    -0.161832765089E+04    0.14309E-04   -0.10493E-04 15210   0.191E-02    0.153E-02
DAV:   4    -0.161832765748E+04   -0.65943E-05   -0.28795E-05  7920   0.909E-03    0.472E-03
DAV:   5    -0.161832766219E+04   -0.47128E-05   -0.87454E-06  6728   0.544E-03
   9 F= -.16183277E+04 E0= -.16183318E+04  d E =-.184532E-03
       N       E                     dE             d eps       ncg     rms          rms(c)
DAV:   1    -0.161832779107E+04   -0.13359E-03   -0.26540E-03 12208   0.783E-02    0.251E-02
DAV:   2    -0.161832774177E+04    0.49298E-04   -0.66583E-05 13832   0.135E-02    0.128E-02
DAV:   3    -0.161832772721E+04    0.14563E-04   -0.28082E-05  9328   0.107E-02    0.860E-03
DAV:   4    -0.161832771236E+04    0.14849E-04   -0.99129E-06  7312   0.765E-03    0.346E-03
DAV:   5    -0.161832770573E+04    0.66261E-05   -0.59872E-06  6464   0.424E-03
  10 F= -.16183277E+04 E0= -.16183318E+04  d E =-.435379E-04
       N       E                     dE             d eps       ncg     rms          rms(c)
DAV:   1    -0.161832778202E+04   -0.69659E-04   -0.89190E-03 12196   0.121E-01    0.136E-02
DAV:   2    -0.161832779210E+04   -0.10086E-04   -0.89530E-05 14952   0.167E-02    0.107E-02
DAV:   3    -0.161832778852E+04    0.35836E-05   -0.19149E-05  8634   0.897E-03    0.759E-03
DAV:   4    -0.161832779248E+04   -0.39634E-05   -0.11981E-05  6464   0.503E-03    0.165E-03
DAV:   5    -0.161832779307E+04   -0.58401E-06   -0.32989E-06  6464   0.360E-03
  11 F= -.16183278E+04 E0= -.16183319E+04  d E =-.873354E-04
       N       E                     dE             d eps       ncg     rms          rms(c)
DAV:   1    -0.161832784856E+04   -0.56081E-04   -0.72627E-03 12196   0.109E-01    0.123E-02
DAV:   2    -0.161832784749E+04    0.10732E-05   -0.71292E-05 14256   0.145E-02    0.961E-03
DAV:   3    -0.161832784299E+04    0.44977E-05   -0.18158E-05  8384   0.836E-03    0.679E-03
DAV:   4    -0.161832783817E+04    0.48219E-05   -0.84920E-06  6440   0.443E-03    0.195E-03
DAV:   5    -0.161832783723E+04    0.94426E-06   -0.28695E-06  6440   0.335E-03
  12 F= -.16183278E+04 E0= -.16183320E+04  d E =-.441596E-04
       N       E                     dE             d eps       ncg     rms          rms(c)
DAV:   1    -0.161832784376E+04   -0.55925E-05   -0.46925E-04 12208   0.314E-02    0.879E-03
DAV:   2    -0.161832784811E+04   -0.43446E-05   -0.73712E-06  6296   0.436E-03    0.431E-03
DAV:   3    -0.161832785226E+04   -0.41499E-05   -0.34683E-06  6296   0.320E-03    0.202E-03
DAV:   4    -0.161832785480E+04   -0.25443E-05   -0.15504E-06  6272   0.246E-03    0.948E-04
DAV:   5    -0.161832785594E+04   -0.11419E-05   -0.71268E-07  6272   0.171E-03
  13 F= -.16183279E+04 E0= -.16183320E+04  d E =-.187173E-04
       N       E                     dE             d eps       ncg     rms          rms(c)
DAV:   1    -0.161832788859E+04   -0.33792E-04   -0.26740E-03 12208   0.660E-02    0.784E-03
DAV:   2    -0.161832788481E+04    0.37815E-05   -0.17490E-05  7792   0.744E-03    0.534E-03
DAV:   3    -0.161832788339E+04    0.14226E-05   -0.58705E-06  6536   0.503E-03    0.391E-03
DAV:   4    -0.161832788023E+04    0.31580E-05   -0.35293E-06  6272   0.351E-03    0.114E-03
DAV:   5    -0.161832787972E+04    0.50808E-06   -0.17705E-06  6272   0.253E-03
  14 F= -.16183279E+04 E0= -.16183320E+04  d E =-.237797E-04
       N       E                     dE             d eps       ncg     rms          rms(c)
DAV:   1    -0.161832789939E+04   -0.19152E-04   -0.26504E-03 12196   0.654E-02    0.678E-03
DAV:   2    -0.161832790192E+04   -0.25379E-05   -0.16733E-05  7136   0.672E-03    0.488E-03
DAV:   3    -0.161832790294E+04   -0.10151E-05   -0.59228E-06  6370   0.427E-03    0.308E-03
DAV:   4    -0.161832790457E+04   -0.16318E-05   -0.37256E-06  6272   0.357E-03    0.572E-04
DAV:   5    -0.161832790459E+04   -0.24878E-07   -0.18612E-06  6272   0.249E-03
  15 F= -.16183279E+04 E0= -.16183320E+04  d E =-.248702E-04
       N       E                     dE             d eps       ncg     rms          rms(c)
DAV:   1    -0.161832791677E+04   -0.12201E-04   -0.43038E-04 12208   0.275E-02    0.538E-03
DAV:   2    -0.161832791160E+04    0.51729E-05   -0.49918E-06  6272   0.373E-03    0.291E-03
DAV:   3    -0.161832790946E+04    0.21416E-05   -0.22205E-06  6272   0.301E-03    0.184E-03
DAV:   4    -0.161832790753E+04    0.19284E-05   -0.11863E-06  6272   0.233E-03    0.780E-04
DAV:   5    -0.161832790661E+04    0.91728E-06   -0.70254E-07  6272   0.150E-03
  16 F= -.16183279E+04 E0= -.16183321E+04  d E =-.201577E-05
       N       E                     dE             d eps       ncg     rms          rms(c)
DAV:   1    -0.161832791631E+04   -0.87849E-05   -0.87732E-04 12208   0.379E-02    0.458E-03
DAV:   2    -0.161832791857E+04   -0.22582E-05   -0.57289E-06  6272   0.385E-03    0.303E-03
DAV:   3    -0.161832792029E+04   -0.17175E-05   -0.22966E-06  6272   0.235E-03    0.127E-03
DAV:   4    -0.161832792128E+04   -0.99526E-06   -0.11632E-06  6272   0.191E-03    0.571E-04
DAV:   5    -0.161832792149E+04   -0.20334E-06   -0.63868E-07  6272   0.145E-03
  17 F= -.16183279E+04 E0= -.16183321E+04  d E =-.148764E-04
       N       E                     dE             d eps       ncg     rms          rms(c)
DAV:   1    -0.161832793488E+04   -0.13594E-04   -0.15398E-03 12196   0.498E-02    0.503E-03
DAV:   2    -0.161832793436E+04    0.52027E-06   -0.91998E-06  7008   0.492E-03    0.365E-03
DAV:   3    -0.161832793375E+04    0.60283E-06   -0.33503E-06  6362   0.295E-03    0.188E-03
DAV:   4    -0.161832793315E+04    0.60483E-06   -0.19118E-06  6272   0.253E-03    0.477E-04
DAV:   5    -0.161832793330E+04   -0.15088E-06   -0.10045E-06  6272   0.179E-03
  18 F= -.16183279E+04 E0= -.16183321E+04  d E =-.118135E-04
       N       E                     dE             d eps       ncg     rms          rms(c)
DAV:   1    -0.161832793796E+04   -0.48152E-05   -0.87625E-04 12196   0.382E-02    0.534E-03
DAV:   2    -0.161832794114E+04   -0.31786E-05   -0.66156E-06  6368   0.415E-03    0.326E-03
DAV:   3    -0.161832794325E+04   -0.21088E-05   -0.27125E-06  6296   0.268E-03    0.172E-03
DAV:   4    -0.161832794478E+04   -0.15249E-05   -0.13984E-06  6272   0.216E-03    0.775E-04
DAV:   5    -0.161832794539E+04   -0.61484E-06   -0.77630E-07  6272   0.158E-03
  19 F= -.16183279E+04 E0= -.16183321E+04  d E =-.120914E-04
       N       E                     dE             d eps       ncg     rms          rms(c)
DAV:   1    -0.161832795294E+04   -0.81659E-05   -0.12551E-04 11960   0.154E-02    0.366E-03
DAV:   2    -0.161832794943E+04    0.35179E-05   -0.18168E-06  6272   0.220E-03    0.189E-03
DAV:   3    -0.161832794781E+04    0.16149E-05   -0.85184E-07  6272   0.171E-03    0.114E-03
DAV:   4    -0.161832794658E+04    0.12339E-05   -0.42185E-07  6272   0.133E-03    0.487E-04
DAV:   5    -0.161832794593E+04    0.64149E-06   -0.23697E-07  6272   0.855E-04
  20 F= -.16183279E+04 E0= -.16183321E+04  d E =-.542932E-06
       N       E                     dE             d eps       ncg     rms          rms(c)
DAV:   1    -0.161832795275E+04   -0.61687E-05   -0.78662E-04 12202   0.356E-02    0.351E-03
DAV:   2    -0.161832795309E+04   -0.34978E-06   -0.44316E-06  6272   0.341E-03    0.258E-03
DAV:   3    -0.161832795324E+04   -0.14277E-06   -0.17365E-06  6266   0.199E-03    0.745E-04
DAV:   4    -0.161832795337E+04   -0.12953E-06   -0.83660E-07  6272   0.160E-03    0.426E-04
DAV:   5    -0.161832795337E+04   -0.76056E-08   -0.45436E-07  6272   0.115E-03
  21 F= -.16183280E+04 E0= -.16183321E+04  d E =-.743990E-05
       N       E                     dE             d eps       ncg     rms          rms(c)
DAV:   1    -0.161832797271E+04   -0.19340E-04   -0.11155E-02 12124   0.134E-01    0.131E-02
DAV:   2    -0.161832797557E+04   -0.28634E-05   -0.90544E-05 15048   0.126E-02    0.996E-03
DAV:   3    -0.161832797155E+04    0.40258E-05   -0.10425E-05  6970   0.522E-03    0.407E-03
DAV:   4    -0.161832797000E+04    0.15421E-05   -0.40632E-06  6440   0.432E-03    0.160E-03
DAV:   5    -0.161832797003E+04   -0.24140E-07   -0.13298E-06  6308   0.280E-03
  22 F= -.16183280E+04 E0= -.16183321E+04  d E =-.166524E-04
       N       E                     dE             d eps       ncg     rms          rms(c)
DAV:   1    -0.161832795753E+04    0.12469E-04   -0.39044E-03 12172   0.797E-02    0.881E-03
DAV:   2    -0.161832796081E+04   -0.32801E-05   -0.19531E-05  6640   0.741E-03    0.597E-03
DAV:   3    -0.161832796289E+04   -0.20800E-05   -0.63902E-06  6266   0.399E-03    0.272E-03
DAV:   4    -0.161832796459E+04   -0.17011E-05   -0.30684E-06  6272   0.330E-03    0.996E-04
DAV:   5    -0.161832796487E+04   -0.27601E-06   -0.14986E-06  6272   0.237E-03
  23 F= -.16183280E+04 E0= -.16183321E+04  d E =0.515634E-05
       N       E                     dE             d eps       ncg     rms          rms(c)
DAV:   1    -0.161832797486E+04   -0.10270E-04   -0.24916E-03 12184   0.635E-02    0.600E-03
DAV:   2    -0.161832797442E+04    0.44422E-06   -0.11166E-05  6280   0.551E-03    0.435E-03
DAV:   3    -0.161832797327E+04    0.11467E-05   -0.35483E-06  6266   0.278E-03    0.118E-03
DAV:   4    -0.161832797309E+04    0.18509E-06   -0.14631E-06  6272   0.211E-03    0.646E-04
DAV:   5    -0.161832797318E+04   -0.93102E-07   -0.70259E-07  6272   0.152E-03
  24 F= -.16183280E+04 E0= -.16183321E+04  d E =-.831105E-05
       N       E                     dE             d eps       ncg     rms          rms(c)
DAV:   1    -0.161832797995E+04   -0.68587E-05   -0.28559E-03 12172   0.677E-02    0.652E-03
DAV:   2    -0.161832798002E+04   -0.74858E-07   -0.16033E-05  6784   0.647E-03    0.479E-03
DAV:   3    -0.161832797900E+04    0.10247E-05   -0.63593E-06  6266   0.365E-03    0.818E-04
DAV:   4    -0.161832797913E+04   -0.13351E-06   -0.27451E-06  6272   0.265E-03    0.602E-04
DAV:   5    -0.161832797930E+04   -0.16769E-06   -0.15036E-06  6272   0.209E-03
  25 F= -.16183280E+04 E0= -.16183321E+04  d E =-.611697E-05
       N       E                     dE             d eps       ncg     rms          rms(c)
DAV:   1    -0.161832798121E+04   -0.20772E-05   -0.77446E-04 12184   0.352E-02    0.339E-03
DAV:   2    -0.161832798176E+04   -0.55556E-06   -0.55099E-06  6272   0.374E-03    0.253E-03
DAV:   3    -0.161832798202E+04   -0.25118E-06   -0.23056E-06  6260   0.228E-03    0.601E-04
DAV:   4    -0.161832798219E+04   -0.17610E-06   -0.11684E-06  6272   0.177E-03    0.383E-04
DAV:   5    -0.161832798223E+04   -0.36104E-07   -0.67662E-07  6272   0.141E-03
  26 F= -.16183280E+04 E0= -.16183321E+04  d E =-.292847E-05
