       N       E                     dE             d eps       ncg     rms          rms(c)
DAV:   1     0.194182053996E+04    0.19418E+04   -0.27682E+05 11172   0.142E+03
DAV:   2    -0.118579319896E+04   -0.31276E+04   -0.30067E+04 12902   0.266E+02
DAV:   3    -0.157731143447E+04   -0.39152E+03   -0.35578E+03 17520   0.823E+01
DAV:   4    -0.160241968312E+04   -0.25108E+02   -0.22662E+02 15832   0.162E+01
DAV:   5    -0.160358445694E+04   -0.11648E+01   -0.11338E+01 16792   0.448E+00    0.379E+01
DAV:   6    -0.156805873501E+04    0.35526E+02   -0.10657E+02 17488   0.145E+01    0.225E+01
DAV:   7    -0.155883966853E+04    0.92191E+01   -0.92075E+01 17824   0.154E+01    0.180E+01
DAV:   8    -0.154791694333E+04    0.10923E+02   -0.63539E+01 16328   0.114E+01    0.112E+01
DAV:   9    -0.154132936898E+04    0.65876E+01   -0.28834E+01 16376   0.821E+00    0.329E+00
DAV:  10    -0.154114754440E+04    0.18182E+00   -0.54388E+00 15832   0.322E+00    0.140E+00
DAV:  11    -0.154115988812E+04   -0.12344E-01   -0.63523E-01 14816   0.116E+00    0.102E+00
DAV:  12    -0.154114171720E+04    0.18171E-01   -0.16882E-01 15088   0.615E-01    0.649E-01
DAV:  13    -0.154112806505E+04    0.13652E-01   -0.66432E-02 14016   0.412E-01    0.360E-01
DAV:  14    -0.154112330235E+04    0.47627E-02   -0.20277E-02 14176   0.201E-01    0.156E-01
DAV:  15    -0.154112278906E+04    0.51329E-03   -0.55417E-03 15608   0.108E-01    0.792E-02
DAV:  16    -0.154112273825E+04    0.50809E-04   -0.14566E-03 15904   0.591E-02    0.543E-02
DAV:  17    -0.154112267060E+04    0.67654E-04   -0.58454E-04 14760   0.378E-02    0.295E-02
DAV:  18    -0.154112265543E+04    0.15168E-04   -0.18923E-04 14248   0.208E-02    0.140E-02
DAV:  19    -0.154112265198E+04    0.34448E-05   -0.49145E-05  9632   0.122E-02
   1 F= -.15411227E+04 E0= -.15411234E+04  d E =-.154112E+04
       N       E                     dE             d eps       ncg     rms          rms(c)
DAV:   1    -0.154389289670E+04   -0.27702E+01   -0.26393E+03 11172   0.796E+01    0.275E+01
DAV:   2    -0.151653604218E+04    0.27357E+02   -0.16184E+02 18480   0.182E+01    0.185E+01
DAV:   3    -0.150909807413E+04    0.74380E+01   -0.97894E+01 18640   0.140E+01    0.151E+01
DAV:   4    -0.150094606511E+04    0.81520E+01   -0.46536E+01 20264   0.897E+00    0.103E+01
DAV:   5    -0.149659117897E+04    0.43549E+01   -0.30519E+01 18184   0.658E+00    0.442E+00
DAV:   6    -0.149610064224E+04    0.49054E+00   -0.71319E+00 18128   0.348E+00    0.294E+00
DAV:   7    -0.149591775275E+04    0.18289E+00   -0.13302E+00 17136   0.159E+00    0.206E+00
DAV:   8    -0.149584399166E+04    0.73761E-01   -0.46341E-01 18160   0.751E-01    0.103E+00
DAV:   9    -0.149583688267E+04    0.71090E-02   -0.26055E-01 17880   0.495E-01    0.517E-01
DAV:  10    -0.149583468478E+04    0.21979E-02   -0.58629E-02 18320   0.325E-01    0.368E-01
DAV:  11    -0.149583004436E+04    0.46404E-02   -0.23617E-02 19464   0.207E-01    0.179E-01
DAV:  12    -0.149583024849E+04   -0.20413E-03   -0.83718E-03 17512   0.104E-01    0.103E-01
DAV:  13    -0.149583077095E+04   -0.52246E-03   -0.28265E-03 16800   0.629E-02    0.572E-02
DAV:  14    -0.149583104677E+04   -0.27582E-03   -0.10842E-03 16928   0.468E-02    0.551E-02
DAV:  15    -0.149583097471E+04    0.72056E-04   -0.51442E-04 16824   0.339E-02    0.283E-02
DAV:  16    -0.149583096430E+04    0.10415E-04   -0.20121E-04 17160   0.172E-02    0.130E-02
DAV:  17    -0.149583097126E+04   -0.69608E-05   -0.38428E-05  8080   0.855E-03
   2 F= -.14958310E+04 E0= -.14958352E+04  d E =0.452917E+02
       N       E                     dE             d eps       ncg     rms          rms(c)
DAV:   1    -0.157417483672E+04   -0.78344E+02   -0.13449E+03 11172   0.628E+01    0.193E+01
DAV:   2    -0.155928891370E+04    0.14886E+02   -0.48241E+01 17256   0.113E+01    0.103E+01
DAV:   3    -0.155669363457E+04    0.25953E+01   -0.31766E+01 18040   0.851E+00    0.854E+00
DAV:   4    -0.155356720222E+04    0.31264E+01   -0.15039E+01 17464   0.576E+00    0.540E+00
DAV:   5    -0.155208994067E+04    0.14773E+01   -0.82772E+00 16160   0.413E+00    0.182E+00
DAV:   6    -0.155200457280E+04    0.85368E-01   -0.17600E+00 15224   0.187E+00    0.934E-01
DAV:   7    -0.155201399940E+04   -0.94266E-02   -0.22358E-01 14440   0.709E-01    0.735E-01
DAV:   8    -0.155201470538E+04   -0.70598E-03   -0.58916E-02 15664   0.325E-01    0.401E-01
DAV:   9    -0.155202729342E+04   -0.12588E-01   -0.64580E-02 16272   0.283E-01    0.277E-01
DAV:  10    -0.155202607703E+04    0.12164E-02   -0.12474E-02 15616   0.184E-01    0.142E-01
DAV:  11    -0.155202586921E+04    0.20781E-03   -0.39081E-03 16512   0.864E-02    0.772E-02
DAV:  12    -0.155202615191E+04   -0.28269E-03   -0.18809E-03 16560   0.575E-02    0.485E-02
DAV:  13    -0.155202644874E+04   -0.29684E-03   -0.69595E-04 13928   0.359E-02    0.247E-02
DAV:  14    -0.155202645989E+04   -0.11146E-04   -0.15042E-04 13112   0.176E-02    0.137E-02
DAV:  15    -0.155202645539E+04    0.45009E-05   -0.28333E-05  7296   0.893E-03
   3 F= -.15520265E+04 E0= -.15520535E+04  d E =-.561955E+02
       N       E                     dE             d eps       ncg     rms          rms(c)
DAV:   1    -0.155247075294E+04   -0.44429E+00   -0.24551E+01 11172   0.714E+00    0.131E+00
DAV:   2    -0.155242593457E+04    0.44818E-01   -0.38932E-01 16080   0.787E-01    0.766E-01
DAV:   3    -0.155241970790E+04    0.62267E-02   -0.13737E-01 18240   0.561E-01    0.668E-01
DAV:   4    -0.155239631791E+04    0.23390E-01   -0.67880E-02 16464   0.403E-01    0.316E-01
DAV:   5    -0.155239244605E+04    0.38719E-02   -0.31867E-02 15176   0.265E-01    0.118E-01
DAV:   6    -0.155239230403E+04    0.14202E-03   -0.57039E-03 14816   0.119E-01    0.832E-02
DAV:   7    -0.155239220116E+04    0.10287E-03   -0.13342E-03 15520   0.592E-02    0.575E-02
DAV:   8    -0.155239217574E+04    0.25420E-04   -0.55615E-04 15584   0.320E-02    0.304E-02
DAV:   9    -0.155239220960E+04   -0.33864E-04   -0.22586E-04 14632   0.205E-02    0.193E-02
DAV:  10    -0.155239221757E+04   -0.79659E-05   -0.62081E-05 11712   0.137E-02
   4 F= -.15523922E+04 E0= -.15524166E+04  d E =-.365762E+00
       N       E                     dE             d eps       ncg     rms          rms(c)
DAV:   1    -0.155244844474E+04   -0.56235E-01   -0.39299E+00 11172   0.269E+00    0.434E-01
DAV:   2    -0.155245595502E+04   -0.75103E-02   -0.10586E-01 18176   0.507E-01    0.443E-01
DAV:   3    -0.155244430484E+04    0.11650E-01   -0.45537E-02 18032   0.339E-01    0.214E-01
DAV:   4    -0.155244267576E+04    0.16291E-02   -0.83971E-03 16056   0.125E-01    0.140E-01
DAV:   5    -0.155244197653E+04    0.69923E-03   -0.38675E-03 15240   0.950E-02    0.750E-02
DAV:   6    -0.155244177581E+04    0.20073E-03   -0.15085E-03 15368   0.629E-02    0.440E-02
DAV:   7    -0.155244169385E+04    0.81957E-04   -0.45927E-04 15656   0.358E-02    0.248E-02
DAV:   8    -0.155244169267E+04    0.11768E-05   -0.11353E-04 13344   0.146E-02    0.145E-02
DAV:   9    -0.155244169709E+04   -0.44129E-05   -0.33932E-05  7888   0.974E-03
   5 F= -.15524417E+04 E0= -.15524663E+04  d E =-.494795E-01
       N       E                     dE             d eps       ncg     rms          rms(c)
DAV:   1    -0.155246164869E+04   -0.19956E-01   -0.22212E+00 11172   0.199E+00    0.226E-01
DAV:   2    -0.155246701852E+04   -0.53698E-02   -0.41464E-02 17736   0.301E-01    0.281E-01
DAV:   3    -0.155246233826E+04    0.46803E-02   -0.15207E-02 17944   0.197E-01    0.124E-01
DAV:   4    -0.155246207947E+04    0.25879E-03   -0.23905E-03 16096   0.655E-02    0.852E-02
DAV:   5    -0.155246192437E+04    0.15510E-03   -0.12847E-03 14952   0.529E-02    0.399E-02
DAV:   6    -0.155246190643E+04    0.17937E-04   -0.47835E-04 16112   0.363E-02    0.249E-02
DAV:   7    -0.155246187910E+04    0.27330E-04   -0.16279E-04 15376   0.204E-02    0.116E-02
DAV:   8    -0.155246187235E+04    0.67507E-05   -0.26745E-05  7152   0.834E-03
   6 F= -.15524619E+04 E0= -.15524861E+04  d E =-.201753E-01
       N       E                     dE             d eps       ncg     rms          rms(c)
DAV:   1    -0.155247008578E+04   -0.82067E-02   -0.54199E-01 11270   0.103E+00    0.201E-01
DAV:   2    -0.155247076794E+04   -0.68217E-03   -0.16707E-02 18216   0.213E-01    0.195E-01
DAV:   3    -0.155246851904E+04    0.22489E-02   -0.86937E-03 18008   0.148E-01    0.956E-02
DAV:   4    -0.155246812060E+04    0.39844E-03   -0.17742E-03 15824   0.571E-02    0.603E-02
DAV:   5    -0.155246792773E+04    0.19287E-03   -0.82957E-04 15280   0.453E-02    0.311E-02
DAV:   6    -0.155246787204E+04    0.55681E-04   -0.29132E-04 15456   0.281E-02    0.182E-02
DAV:   7    -0.155246785597E+04    0.16072E-04   -0.80190E-05 13200   0.152E-02    0.105E-02
DAV:   8    -0.155246785778E+04   -0.18075E-05   -0.18859E-05  6576   0.703E-03
   7 F= -.15524679E+04 E0= -.15524922E+04  d E =-.598543E-02
       N       E                     dE             d eps       ncg     rms          rms(c)
DAV:   1    -0.155247327787E+04   -0.54219E-02   -0.33282E-01 11235   0.793E-01    0.114E-01
DAV:   2    -0.155247374116E+04   -0.46329E-03   -0.54480E-03 17264   0.108E-01    0.111E-01
DAV:   3    -0.155247313483E+04    0.60633E-03   -0.22348E-03 17891   0.755E-02    0.595E-02
DAV:   4    -0.155247306416E+04    0.70670E-04   -0.53773E-04 14560   0.323E-02    0.293E-02
DAV:   5    -0.155247306716E+04   -0.29978E-05   -0.23457E-04 15272   0.245E-02    0.159E-02
DAV:   6    -0.155247306307E+04    0.40896E-05   -0.71952E-05 13096   0.153E-02
   8 F= -.15524731E+04 E0= -.15524972E+04  d E =-.520529E-02
       N       E                     dE             d eps       ncg     rms          rms(c)
DAV:   1    -0.155247598925E+04   -0.29221E-02   -0.26072E-01 11228   0.681E-01    0.918E-02
DAV:   2    -0.155247685278E+04   -0.86353E-03   -0.62475E-03 18128   0.129E-01    0.123E-01
DAV:   3    -0.155247586396E+04    0.98883E-03   -0.29729E-03 17936   0.872E-02    0.465E-02
DAV:   4    -0.155247580108E+04    0.62877E-04   -0.39644E-04 16024   0.263E-02    0.325E-02
DAV:   5    -0.155247576007E+04    0.41013E-04   -0.18231E-04 15144   0.209E-02    0.181E-02
DAV:   6    -0.155247574280E+04    0.17271E-04   -0.77028E-05 13400   0.153E-02    0.102E-02
DAV:   7    -0.155247573716E+04    0.56390E-05   -0.21398E-05  6944   0.881E-03
   9 F= -.15524757E+04 E0= -.15524999E+04  d E =-.267409E-02
       N       E                     dE             d eps       ncg     rms          rms(c)
DAV:   1    -0.155247697165E+04   -0.12288E-02   -0.12710E-01 11284   0.480E-01    0.592E-02
DAV:   2    -0.155247730223E+04   -0.33059E-03   -0.21481E-03 17456   0.711E-02    0.727E-02
DAV:   3    -0.155247699434E+04    0.30789E-03   -0.93185E-04 17664   0.491E-02    0.319E-02
DAV:   4    -0.155247699304E+04    0.12980E-05   -0.16268E-04 14456   0.176E-02    0.168E-02
DAV:   5    -0.155247699799E+04   -0.49434E-05   -0.60529E-05 11688   0.132E-02
  10 F= -.15524770E+04 E0= -.15525011E+04  d E =-.126083E-02
       N       E                     dE             d eps       ncg     rms          rms(c)
DAV:   1    -0.155247775843E+04   -0.76538E-03   -0.32465E-02 11326   0.252E-01    0.495E-02
DAV:   2    -0.155247776640E+04   -0.79781E-05   -0.90707E-04 18176   0.500E-02    0.478E-02
DAV:   3    -0.155247762870E+04    0.13771E-03   -0.48816E-04 17984   0.354E-02    0.238E-02
DAV:   4    -0.155247759237E+04    0.36327E-04   -0.10126E-04 14008   0.136E-02    0.143E-02
DAV:   5    -0.155247756857E+04    0.23802E-04   -0.39668E-05  8720   0.111E-02    0.707E-03
DAV:   6    -0.155247756205E+04    0.65216E-05   -0.12098E-05  6448   0.750E-03
  11 F= -.15524776E+04 E0= -.15525017E+04  d E =-.564060E-03
       N       E                     dE             d eps       ncg     rms          rms(c)
DAV:   1    -0.155247809914E+04   -0.53057E-03   -0.50426E-02 11256   0.299E-01    0.329E-02
DAV:   2    -0.155247825693E+04   -0.15779E-03   -0.86695E-04 17744   0.459E-02    0.468E-02
DAV:   3    -0.155247812162E+04    0.13531E-03   -0.37862E-04 17778   0.313E-02    0.186E-02
DAV:   4    -0.155247812329E+04   -0.16733E-05   -0.47208E-05  9840   0.101E-02    0.105E-02
DAV:   5    -0.155247812665E+04   -0.33620E-05   -0.17611E-05  6816   0.834E-03
  12 F= -.15524781E+04 E0= -.15525022E+04  d E =-.564607E-03
       N       E                     dE             d eps       ncg     rms          rms(c)
DAV:   1    -0.155247847501E+04   -0.35172E-03   -0.33143E-02 11284   0.243E-01    0.313E-02
DAV:   2    -0.155247855688E+04   -0.81872E-04   -0.69132E-04 18104   0.422E-02    0.410E-02
DAV:   3    -0.155247844727E+04    0.10962E-03   -0.32112E-04 17736   0.288E-02    0.162E-02
DAV:   4    -0.155247843427E+04    0.13003E-04   -0.33723E-05  8200   0.887E-03    0.104E-02
DAV:   5    -0.155247842525E+04    0.90149E-05   -0.17795E-05  6472   0.758E-03
  13 F= -.15524784E+04 E0= -.15525025E+04  d E =-.298597E-03
       N       E                     dE             d eps       ncg     rms          rms(c)
DAV:   1    -0.155247855874E+04   -0.12447E-03   -0.84628E-03 11326   0.127E-01    0.188E-02
DAV:   2    -0.155247857548E+04   -0.16744E-04   -0.10730E-04 14320   0.150E-02    0.148E-02
DAV:   3    -0.155247856929E+04    0.61942E-05   -0.30261E-05  8592   0.106E-02    0.962E-03
DAV:   4    -0.155247857661E+04   -0.73203E-05   -0.14502E-05  6240   0.643E-03    0.450E-03
DAV:   5    -0.155247858121E+04   -0.46059E-05   -0.60572E-06  6136   0.495E-03
  14 F= -.15524786E+04 E0= -.15525027E+04  d E =-.155963E-03
       N       E                     dE             d eps       ncg     rms          rms(c)
DAV:   1    -0.155247874523E+04   -0.16863E-03   -0.12179E-02 11284   0.147E-01    0.186E-02
DAV:   2    -0.155247876992E+04   -0.24687E-04   -0.22748E-04 17744   0.248E-02    0.243E-02
DAV:   3    -0.155247873073E+04    0.39187E-04   -0.10614E-04 13920   0.172E-02    0.974E-03
DAV:   4    -0.155247872496E+04    0.57756E-05   -0.14396E-05  6536   0.648E-03    0.625E-03
DAV:   5    -0.155247871976E+04    0.51956E-05   -0.72089E-06  6128   0.514E-03
  15 F= -.15524787E+04 E0= -.15525028E+04  d E =-.138550E-03
       N       E                     dE             d eps       ncg     rms          rms(c)
DAV:   1    -0.155247882354E+04   -0.98583E-04   -0.10761E-02 11284   0.137E-01    0.138E-02
DAV:   2    -0.155247884587E+04   -0.22324E-04   -0.12949E-04 15400   0.171E-02    0.163E-02
DAV:   3    -0.155247883172E+04    0.14149E-04   -0.35665E-05  8936   0.114E-02    0.834E-03
DAV:   4    -0.155247883519E+04   -0.34682E-05   -0.15159E-05  6192   0.583E-03    0.380E-03
DAV:   5    -0.155247883745E+04   -0.22596E-05   -0.59814E-06  6096   0.502E-03
  16 F= -.15524788E+04 E0= -.15525029E+04  d E =-.117682E-03
       N       E                     dE             d eps       ncg     rms          rms(c)
DAV:   1    -0.155247891113E+04   -0.75942E-04   -0.48645E-03 11312   0.936E-02    0.127E-02
DAV:   2    -0.155247891199E+04   -0.86226E-06   -0.74942E-05 12320   0.154E-02    0.142E-02
DAV:   3    -0.155247889781E+04    0.14183E-04   -0.33858E-05  9096   0.112E-02    0.620E-03
DAV:   4    -0.155247889364E+04    0.41691E-05   -0.91542E-06  6024   0.479E-03    0.383E-03
DAV:   5    -0.155247888982E+04    0.38129E-05   -0.43070E-06  5968   0.387E-03
  17 F= -.15524789E+04 E0= -.15525030E+04  d E =-.523796E-04
       N       E                     dE             d eps       ncg     rms          rms(c)
DAV:   1    -0.155247893534E+04   -0.41700E-04   -0.31956E-03 11298   0.756E-02    0.891E-03
DAV:   2    -0.155247894297E+04   -0.76297E-05   -0.24291E-05  7808   0.882E-03    0.796E-03
DAV:   3    -0.155247894146E+04    0.15046E-05   -0.97332E-06  6592   0.641E-03    0.483E-03
DAV:   4    -0.155247894578E+04   -0.43196E-05   -0.59884E-06  5880   0.372E-03    0.198E-03
DAV:   5    -0.155247894737E+04   -0.15924E-05   -0.28928E-06  5880   0.312E-03
  18 F= -.15524789E+04 E0= -.15525030E+04  d E =-.575496E-04
       N       E                     dE             d eps       ncg     rms          rms(c)
DAV:   1    -0.155247900136E+04   -0.55576E-04   -0.45173E-03 11284   0.887E-02    0.911E-03
DAV:   2    -0.155247900293E+04   -0.15673E-05   -0.47018E-05 10072   0.110E-02    0.941E-03
DAV:   3    -0.155247899817E+04    0.47555E-05   -0.14678E-05  6857   0.778E-03    0.533E-03
DAV:   4    -0.155247899602E+04    0.21535E-05   -0.66242E-06  5880   0.384E-03    0.300E-03
DAV:   5    -0.155247899438E+04    0.16410E-05   -0.33694E-06  5880   0.347E-03
  19 F= -.15524790E+04 E0= -.15525031E+04  d E =-.470006E-04
       N       E                     dE             d eps       ncg     rms          rms(c)
DAV:   1    -0.155247902371E+04   -0.27697E-04   -0.22762E-03 11298   0.633E-02    0.647E-03
DAV:   2    -0.155247902872E+04   -0.50075E-05   -0.16268E-05  6856   0.701E-03    0.589E-03
DAV:   3    -0.155247902825E+04    0.47536E-06   -0.67455E-06  6144   0.503E-03    0.368E-03
DAV:   4    -0.155247903129E+04   -0.30409E-05   -0.41464E-06  5880   0.305E-03    0.140E-03
DAV:   5    -0.155247903223E+04   -0.94498E-06   -0.20607E-06  5880   0.262E-03
  20 F= -.15524790E+04 E0= -.15525031E+04  d E =-.378561E-04
       N       E                     dE             d eps       ncg     rms          rms(c)
DAV:   1    -0.155247906522E+04   -0.33929E-04   -0.21780E-03 11284   0.618E-02    0.676E-03
DAV:   2    -0.155247906243E+04    0.27863E-05   -0.16738E-05  6896   0.723E-03    0.564E-03
DAV:   3    -0.155247906094E+04    0.14871E-05   -0.70703E-06  6096   0.547E-03    0.372E-03
DAV:   4    -0.155247905871E+04    0.22282E-05   -0.37287E-06  5859   0.308E-03    0.202E-03
DAV:   5    -0.155247905738E+04    0.13363E-05   -0.21665E-06  5859   0.264E-03
  21 F= -.15524791E+04 E0= -.15525031E+04  d E =-.251465E-04
       N       E                     dE             d eps       ncg     rms          rms(c)
DAV:   1    -0.155247907889E+04   -0.20179E-04   -0.16604E-03 11298   0.538E-02    0.536E-03
DAV:   2    -0.155247908212E+04   -0.32253E-05   -0.11702E-05  6307   0.542E-03    0.425E-03
DAV:   3    -0.155247908255E+04   -0.43058E-06   -0.47049E-06  5859   0.382E-03    0.311E-03
DAV:   4    -0.155247908480E+04   -0.22475E-05   -0.29914E-06  5838   0.271E-03    0.107E-03
DAV:   5    -0.155247908551E+04   -0.71249E-06   -0.15775E-06  5838   0.226E-03
  22 F= -.15524791E+04 E0= -.15525032E+04  d E =-.281307E-04
       N       E                     dE             d eps       ncg     rms          rms(c)
DAV:   1    -0.155247911087E+04   -0.26073E-04   -0.18825E-03 11284   0.572E-02    0.555E-03
DAV:   2    -0.155247910921E+04    0.16615E-05   -0.12951E-05  6728   0.589E-03    0.439E-03
DAV:   3    -0.155247910868E+04    0.53208E-06   -0.52537E-06  6008   0.422E-03    0.323E-03
DAV:   4    -0.155247910710E+04    0.15800E-05   -0.29900E-06  5838   0.276E-03    0.159E-03
DAV:   5    -0.155247910633E+04    0.76774E-06   -0.17539E-06  5838   0.231E-03
  23 F= -.15524791E+04 E0= -.15525032E+04  d E =-.208196E-04
       N       E                     dE             d eps       ncg     rms          rms(c)
DAV:   1    -0.155247912163E+04   -0.14536E-04   -0.12264E-03 11284   0.462E-02    0.454E-03
DAV:   2    -0.155247912434E+04   -0.27047E-05   -0.86169E-06  5985   0.448E-03    0.337E-03
DAV:   3    -0.155247912502E+04   -0.68552E-06   -0.34811E-06  5810   0.313E-03    0.257E-03
DAV:   4    -0.155247912687E+04   -0.18451E-05   -0.21504E-06  5817   0.236E-03    0.897E-04
DAV:   5    -0.155247912751E+04   -0.64553E-06   -0.11890E-06  5817   0.189E-03
  24 F= -.15524791E+04 E0= -.15525032E+04  d E =-.211842E-04
       N       E                     dE             d eps       ncg     rms          rms(c)
DAV:   1    -0.155247914490E+04   -0.18035E-04   -0.10273E-03 11284   0.423E-02    0.427E-03
DAV:   2    -0.155247914305E+04    0.18535E-05   -0.72722E-06  6006   0.428E-03    0.313E-03
DAV:   3    -0.155247914265E+04    0.39551E-06   -0.29900E-06  5831   0.309E-03    0.241E-03
DAV:   4    -0.155247914135E+04    0.13059E-05   -0.16963E-06  5817   0.214E-03    0.119E-03
DAV:   5    -0.155247914065E+04    0.69239E-06   -0.10241E-06  5817   0.173E-03
  25 F= -.15524791E+04 E0= -.15525032E+04  d E =-.131426E-04
       N       E                     dE             d eps       ncg     rms          rms(c)
DAV:   1    -0.155247915468E+04   -0.13334E-04   -0.12019E-03 11284   0.456E-02    0.414E-03
DAV:   2    -0.155247915649E+04   -0.18094E-05   -0.76755E-06  6275   0.419E-03    0.314E-03
DAV:   3    -0.155247915699E+04   -0.50279E-06   -0.29918E-06  5875   0.276E-03    0.241E-03
DAV:   4    -0.155247915835E+04   -0.13602E-05   -0.19415E-06  5817   0.220E-03    0.592E-04
DAV:   5    -0.155247915859E+04   -0.23679E-06   -0.99614E-07  5817   0.169E-03
  26 F= -.15524792E+04 E0= -.15525032E+04  d E =-.179360E-04
       N       E                     dE             d eps       ncg     rms          rms(c)
DAV:   1    -0.155247917437E+04   -0.16016E-04   -0.11899E-03 11284   0.455E-02    0.442E-03
DAV:   2    -0.155247917254E+04    0.18295E-05   -0.79774E-06  6246   0.442E-03    0.322E-03
DAV:   3    -0.155247917214E+04    0.39542E-06   -0.31907E-06  5863   0.308E-03    0.250E-03
DAV:   4    -0.155247917081E+04    0.13381E-05   -0.18203E-06  5817   0.221E-03    0.118E-03
DAV:   5    -0.155247917015E+04    0.65397E-06   -0.10896E-06  5817   0.175E-03
  27 F= -.15524792E+04 E0= -.15525032E+04  d E =-.115618E-04
       N       E                     dE             d eps       ncg     rms          rms(c)
DAV:   1    -0.155247917643E+04   -0.56237E-05   -0.38614E-04 11244   0.261E-02    0.295E-03
DAV:   2    -0.155247917844E+04   -0.20050E-05   -0.31805E-06  5775   0.273E-03    0.204E-03
DAV:   3    -0.155247917902E+04   -0.58163E-06   -0.13606E-06  5775   0.203E-03    0.157E-03
DAV:   4    -0.155247918017E+04   -0.11501E-05   -0.80276E-07  5775   0.146E-03    0.720E-04
DAV:   5    -0.155247918080E+04   -0.63293E-06   -0.47574E-07  5775   0.116E-03
  28 F= -.15524792E+04 E0= -.15525033E+04  d E =-.106473E-04
       N       E                     dE             d eps       ncg     rms          rms(c)
DAV:   1    -0.155247919285E+04   -0.12680E-04   -0.91388E-04 11270   0.397E-02    0.358E-03
DAV:   2    -0.155247919228E+04    0.56265E-06   -0.56083E-06  5799   0.366E-03    0.276E-03
DAV:   3    -0.155247919216E+04    0.12007E-06   -0.21458E-06  5768   0.238E-03    0.214E-03
DAV:   4    -0.155247919141E+04    0.75840E-06   -0.13429E-06  5775   0.179E-03    0.751E-04
DAV:   5    -0.155247919124E+04    0.16430E-06   -0.72321E-07  5775   0.142E-03
  29 F= -.15524792E+04 E0= -.15525033E+04  d E =-.104420E-04
       N       E                     dE             d eps       ncg     rms          rms(c)
DAV:   1    -0.155247920535E+04   -0.13949E-04   -0.24080E-03 11256   0.646E-02    0.566E-03
DAV:   2    -0.155247920773E+04   -0.23726E-05   -0.13872E-05  7312   0.559E-03    0.418E-03
DAV:   3    -0.155247920881E+04   -0.10817E-05   -0.53501E-06  5993   0.346E-03    0.283E-03
DAV:   4    -0.155247921010E+04   -0.12861E-05   -0.31404E-06  5859   0.296E-03    0.832E-04
DAV:   5    -0.155247921039E+04   -0.29208E-06   -0.16891E-06  5852   0.211E-03
  30 F= -.15524792E+04 E0= -.15525033E+04  d E =-.191455E-04
       N       E                     dE             d eps       ncg     rms          rms(c)
DAV:   1    -0.155247921308E+04   -0.29867E-05   -0.40016E-05  9510   0.105E-02    0.297E-03
DAV:   2    -0.155247920972E+04    0.33602E-05   -0.15200E-06  5817   0.248E-03    0.149E-03
DAV:   3    -0.155247920862E+04    0.11022E-05   -0.52307E-07  5817   0.176E-03    0.127E-03
DAV:   4    -0.155247920748E+04    0.11365E-05   -0.26084E-07  5817   0.113E-03    0.608E-04
DAV:   5    -0.155247920656E+04    0.92169E-06   -0.16681E-07  5817   0.688E-04
  31 F= -.15524792E+04 E0= -.15525033E+04  d E =0.382590E-05
       N       E                     dE             d eps       ncg     rms          rms(c)
DAV:   1    -0.155247921516E+04   -0.76749E-05   -0.89182E-04 11270   0.393E-02    0.336E-03
DAV:   2    -0.155247921598E+04   -0.81818E-06   -0.47985E-06  5775   0.332E-03    0.254E-03
DAV:   3    -0.155247921627E+04   -0.29528E-06   -0.17492E-06  5775   0.199E-03    0.189E-03
DAV:   4    -0.155247921686E+04   -0.58994E-06   -0.11537E-06  5775   0.170E-03    0.454E-04
DAV:   5    -0.155247921692E+04   -0.60892E-07   -0.55665E-07  5775   0.119E-03
  32 F= -.15524792E+04 E0= -.15525033E+04  d E =-.103609E-04
       N       E                     dE             d eps       ncg     rms          rms(c)
DAV:   1    -0.155247923560E+04   -0.18743E-04   -0.51312E-03 11228   0.942E-02    0.800E-03
DAV:   2    -0.155247923585E+04   -0.24308E-06   -0.30704E-05  8552   0.800E-03    0.605E-03
DAV:   3    -0.155247923569E+04    0.15793E-06   -0.93152E-06  5929   0.468E-03    0.436E-03
DAV:   4    -0.155247923441E+04    0.12839E-05   -0.55590E-06  5859   0.391E-03    0.125E-03
DAV:   5    -0.155247923445E+04   -0.49089E-07   -0.27995E-06  5859   0.271E-03
  33 F= -.15524792E+04 E0= -.15525033E+04  d E =-.175326E-04
       N       E                     dE             d eps       ncg     rms          rms(c)
DAV:   1    -0.155247922598E+04    0.84226E-05   -0.61226E-04 11256   0.338E-02    0.493E-03
DAV:   2    -0.155247922921E+04   -0.32262E-05   -0.36231E-06  5754   0.346E-03    0.300E-03
DAV:   3    -0.155247923014E+04   -0.93363E-06   -0.13325E-06  5747   0.263E-03    0.241E-03
DAV:   4    -0.155247923160E+04   -0.14545E-05   -0.60579E-07  5754   0.160E-03    0.120E-03
DAV:   5    -0.155247923293E+04   -0.13350E-05   -0.35822E-07  5754   0.995E-04
  34 F= -.15524792E+04 E0= -.15525033E+04  d E =0.152242E-05
       N       E                     dE             d eps       ncg     rms          rms(c)
DAV:   1    -0.155247924491E+04   -0.13317E-04   -0.12925E-03 11256   0.475E-02    0.431E-03
DAV:   2    -0.155247924318E+04    0.17369E-05   -0.65143E-06  5733   0.400E-03    0.307E-03
DAV:   3    -0.155247924261E+04    0.56660E-06   -0.22533E-06  5733   0.240E-03    0.234E-03
DAV:   4    -0.155247924138E+04    0.12286E-05   -0.12652E-06  5733   0.187E-03    0.992E-04
DAV:   5    -0.155247924086E+04    0.51751E-06   -0.71698E-07  5733   0.131E-03
  35 F= -.15524792E+04 E0= -.15525033E+04  d E =-.793243E-05
       N       E                     dE             d eps       ncg     rms          rms(c)
DAV:   1    -0.155247924803E+04   -0.66488E-05   -0.11603E-03 11242   0.447E-02    0.382E-03
DAV:   2    -0.155247924861E+04   -0.57744E-06   -0.68857E-06  5797   0.391E-03    0.290E-03
DAV:   3    -0.155247924885E+04   -0.24129E-06   -0.26740E-06  5719   0.243E-03    0.200E-03
DAV:   4    -0.155247924907E+04   -0.21552E-06   -0.16695E-06  5733   0.208E-03    0.545E-04
DAV:   5    -0.155247924912E+04   -0.59500E-07   -0.84924E-07  5733   0.148E-03
  36 F= -.15524792E+04 E0= -.15525033E+04  d E =-.826010E-05
       N       E                     dE             d eps       ncg     rms          rms(c)
DAV:   1    -0.155247925998E+04   -0.10916E-04   -0.23789E-03 11242   0.644E-02    0.634E-03
DAV:   2    -0.155247925671E+04    0.32713E-05   -0.14701E-05  7155   0.593E-03    0.437E-03
DAV:   3    -0.155247925568E+04    0.10330E-05   -0.56759E-06  5875   0.395E-03    0.325E-03
DAV:   4    -0.155247925383E+04    0.18444E-05   -0.31131E-06  5796   0.305E-03    0.166E-03
DAV:   5    -0.155247925281E+04    0.10256E-05   -0.19025E-06  5796   0.228E-03
  37 F= -.15524793E+04 E0= -.15525033E+04  d E =-.368186E-05
       N       E                     dE             d eps       ncg     rms          rms(c)
DAV:   1    -0.155247924873E+04    0.51049E-05   -0.43737E-04 11242   0.283E-02    0.378E-03
DAV:   2    -0.155247925128E+04   -0.25494E-05   -0.23269E-06  5733   0.271E-03    0.234E-03
DAV:   3    -0.155247925200E+04   -0.72723E-06   -0.78874E-07  5719   0.195E-03    0.187E-03
DAV:   4    -0.155247925319E+04   -0.11897E-05   -0.36158E-07  5733   0.121E-03    0.908E-04
DAV:   5    -0.155247925421E+04   -0.10129E-05   -0.20594E-07  5733   0.749E-04
  38 F= -.15524793E+04 E0= -.15525033E+04  d E =-.139998E-05
       N       E                     dE             d eps       ncg     rms          rms(c)
DAV:   1    -0.155247925785E+04   -0.46580E-05   -0.41383E-04 11240   0.268E-02    0.216E-03
DAV:   2    -0.155247925811E+04   -0.25939E-06   -0.19899E-06  5733   0.219E-03    0.165E-03
DAV:   3    -0.155247925818E+04   -0.70600E-07   -0.65307E-07  5726   0.121E-03    0.124E-03
DAV:   4    -0.155247925831E+04   -0.12823E-06   -0.43988E-07  5733   0.104E-03    0.341E-04
DAV:   5    -0.155247925833E+04   -0.19244E-07   -0.20520E-07  5733   0.719E-04
  39 F= -.15524793E+04 E0= -.15525033E+04  d E =-.412258E-05
       N       E                     dE             d eps       ncg     rms          rms(c)
DAV:   1    -0.155247926602E+04   -0.77141E-05   -0.16534E-03 11242   0.537E-02    0.510E-03
DAV:   2    -0.155247926362E+04    0.24002E-05   -0.94377E-06  5797   0.472E-03    0.356E-03
DAV:   3    -0.155247926272E+04    0.90541E-06   -0.35297E-06  5733   0.301E-03    0.257E-03
DAV:   4    -0.155247926129E+04    0.14260E-05   -0.19226E-06  5733   0.239E-03    0.117E-03
DAV:   5    -0.155247926065E+04    0.64556E-06   -0.11388E-06  5733   0.170E-03
  40 F= -.15524793E+04 E0= -.15525033E+04  d E =-.231768E-05
       N       E                     dE             d eps       ncg     rms          rms(c)
DAV:   1    -0.155247925737E+04    0.39220E-05   -0.30588E-04 11162   0.237E-02    0.312E-03
DAV:   2    -0.155247925953E+04   -0.21545E-05   -0.16290E-06  5712   0.226E-03    0.193E-03
DAV:   3    -0.155247926013E+04   -0.60836E-06   -0.55730E-07  5705   0.162E-03    0.156E-03
DAV:   4    -0.155247926116E+04   -0.10217E-05   -0.25507E-07  5712   0.100E-03    0.726E-04
DAV:   5    -0.155247926198E+04   -0.82919E-06   -0.14657E-07  5712   0.614E-04
  41 F= -.15524793E+04 E0= -.15525033E+04  d E =-.133729E-05
       N       E                     dE             d eps       ncg     rms          rms(c)
DAV:   1    -0.155247926468E+04   -0.35221E-05   -0.30856E-04 11138   0.231E-02    0.187E-03
DAV:   2    -0.155247926475E+04   -0.67811E-07   -0.14891E-06  5691   0.190E-03    0.141E-03
DAV:   3    -0.155247926476E+04   -0.10016E-07   -0.48580E-07  5691   0.104E-03    0.105E-03
DAV:   4    -0.155247926473E+04    0.29109E-07   -0.31880E-07  5691   0.899E-04    0.279E-04
DAV:   5    -0.155247926473E+04   -0.29609E-08   -0.14765E-07  5691   0.603E-04
  42 F= -.15524793E+04 E0= -.15525033E+04  d E =-.274458E-05
       N       E                     dE             d eps       ncg     rms          rms(c)
DAV:   1    -0.155247927169E+04   -0.69591E-05   -0.47773E-03 11200   0.909E-02    0.763E-03
DAV:   2    -0.155247927234E+04   -0.65587E-06   -0.25797E-05  8008   0.749E-03    0.571E-03
DAV:   3    -0.155247927201E+04    0.33043E-06   -0.93011E-06  5866   0.434E-03    0.279E-03
DAV:   4    -0.155247927185E+04    0.16339E-06   -0.47887E-06  5817   0.365E-03    0.120E-03
DAV:   5    -0.155247927201E+04   -0.15856E-06   -0.25249E-06  5810   0.248E-03
  43 F= -.15524793E+04 E0= -.15525034E+04  d E =-.727676E-05
