       N       E                     dE             d eps       ncg     rms          rms(c)
DAV:   1     0.270957706431E+04    0.27096E+04   -0.31574E+05 12492   0.145E+03
DAV:   2    -0.119150977024E+04   -0.39011E+04   -0.37303E+04 14274   0.343E+02
DAV:   3    -0.170290335972E+04   -0.51139E+03   -0.48660E+03 19088   0.832E+01
DAV:   4    -0.172829483843E+04   -0.25391E+02   -0.24656E+02 17496   0.185E+01
DAV:   5    -0.172936249695E+04   -0.10677E+01   -0.10510E+01 19592   0.382E+00    0.464E+01
DAV:   6    -0.166980700726E+04    0.59555E+02   -0.10893E+02 17888   0.137E+01    0.239E+01
DAV:   7    -0.165248070774E+04    0.17326E+02   -0.68698E+01 17024   0.133E+01    0.117E+01
DAV:   8    -0.164550685995E+04    0.69738E+01   -0.30226E+01 17200   0.109E+01    0.358E+00
DAV:   9    -0.164524384526E+04    0.26301E+00   -0.86248E+00 17624   0.474E+00    0.186E+00
DAV:  10    -0.164523348936E+04    0.10356E-01   -0.11598E+00 15736   0.160E+00    0.128E+00
DAV:  11    -0.164519982510E+04    0.33664E-01   -0.33257E-01 16568   0.758E-01    0.578E-01
DAV:  12    -0.164519098254E+04    0.88426E-02   -0.43354E-02 17392   0.313E-01    0.255E-01
DAV:  13    -0.164518906953E+04    0.19130E-02   -0.12218E-02 16896   0.167E-01    0.898E-02
DAV:  14    -0.164518907386E+04   -0.43296E-05   -0.31933E-03 15536   0.875E-02    0.426E-02
DAV:  15    -0.164518908681E+04   -0.12957E-04   -0.63544E-04 15296   0.433E-02    0.210E-02
DAV:  16    -0.164518907025E+04    0.16562E-04   -0.13833E-04 15912   0.194E-02    0.109E-02
DAV:  17    -0.164518905947E+04    0.10784E-04   -0.30695E-05  9232   0.999E-03    0.500E-03
DAV:  18    -0.164518904986E+04    0.96045E-05   -0.13087E-05  8216   0.536E-03
   1 F= -.16451890E+04 E0= -.16451930E+04  d E =-.164519E+04
       N       E                     dE             d eps       ncg     rms          rms(c)
DAV:   1    -0.164575394809E+04   -0.56489E+00   -0.16386E+02 12460   0.162E+01    0.273E+00
DAV:   2    -0.164564395544E+04    0.10999E+00   -0.31296E+00 17448   0.241E+00    0.149E+00
DAV:   3    -0.164558606719E+04    0.57888E-01   -0.47083E-01 16800   0.108E+00    0.975E-01
DAV:   4    -0.164555603832E+04    0.30029E-01   -0.13879E-01 16592   0.729E-01    0.452E-01
DAV:   5    -0.164555025746E+04    0.57809E-02   -0.61556E-02 15704   0.443E-01    0.179E-01
DAV:   6    -0.164555051071E+04   -0.25325E-03   -0.11874E-02 16096   0.168E-01    0.125E-01
DAV:   7    -0.164555045145E+04    0.59261E-04   -0.27715E-03 16232   0.697E-02    0.657E-02
DAV:   8    -0.164555049998E+04   -0.48527E-04   -0.69391E-04 15512   0.416E-02    0.273E-02
DAV:   9    -0.164555046954E+04    0.30436E-04   -0.16037E-04 16640   0.233E-02    0.139E-02
DAV:  10    -0.164555046246E+04    0.70828E-05   -0.75028E-05 14304   0.119E-02
   2 F= -.16455505E+04 E0= -.16455600E+04  d E =-.361413E+00
       N       E                     dE             d eps       ncg     rms          rms(c)
DAV:   1    -0.164597440558E+04   -0.42394E+00   -0.17264E+01 12460   0.653E+00    0.222E+00
DAV:   2    -0.164574030165E+04    0.23410E+00   -0.33141E-01 13008   0.850E-01    0.106E+00
DAV:   3    -0.164567973273E+04    0.60569E-01   -0.16336E-01 14772   0.617E-01    0.302E-01
DAV:   4    -0.164567563169E+04    0.41010E-02   -0.31091E-02 15928   0.330E-01    0.113E-01
DAV:   5    -0.164567531334E+04    0.31835E-03   -0.86434E-03 15839   0.179E-01    0.561E-02
DAV:   6    -0.164567558813E+04   -0.27479E-03   -0.19233E-03 16368   0.662E-02    0.378E-02
DAV:   7    -0.164567573929E+04   -0.15116E-03   -0.36294E-04 16718   0.260E-02    0.230E-02
DAV:   8    -0.164567581209E+04   -0.72796E-04   -0.94933E-05 14408   0.139E-02    0.105E-02
DAV:   9    -0.164567584402E+04   -0.31939E-04   -0.40627E-05 10328   0.923E-03    0.453E-03
DAV:  10    -0.164567585075E+04   -0.67232E-05   -0.10791E-05  7496   0.569E-03
   3 F= -.16456759E+04 E0= -.16456801E+04  d E =-.125388E+00
       N       E                     dE             d eps       ncg     rms          rms(c)
DAV:   1    -0.164586569350E+04   -0.18985E+00   -0.55734E+00 12460   0.339E+00    0.949E-01
DAV:   2    -0.164582719616E+04    0.38497E-01   -0.83327E-02 15784   0.449E-01    0.486E-01
DAV:   3    -0.164581682772E+04    0.10368E-01   -0.37783E-02 16144   0.329E-01    0.244E-01
DAV:   4    -0.164581261422E+04    0.42135E-02   -0.16750E-02 16144   0.271E-01    0.580E-02
DAV:   5    -0.164581272668E+04   -0.11246E-03   -0.43930E-03 15576   0.103E-01    0.439E-02
DAV:   6    -0.164581275800E+04   -0.31320E-04   -0.54751E-04 15864   0.359E-02    0.276E-02
DAV:   7    -0.164581278493E+04   -0.26932E-04   -0.16287E-04 16472   0.165E-02    0.136E-02
DAV:   8    -0.164581278561E+04   -0.67948E-06   -0.36559E-05 10600   0.100E-02
   4 F= -.16458128E+04 E0= -.16458193E+04  d E =-.136935E+00
       N       E                     dE             d eps       ncg     rms          rms(c)
DAV:   1    -0.164581496867E+04   -0.21837E-02   -0.46967E-01 12540   0.854E-01    0.105E-01
DAV:   2    -0.164581523453E+04   -0.26586E-03   -0.69726E-03 16808   0.139E-01    0.672E-02
DAV:   3    -0.164581514175E+04    0.92783E-04   -0.11393E-03 17398   0.585E-02    0.503E-02
DAV:   4    -0.164581509299E+04    0.48758E-04   -0.29719E-04 17864   0.307E-02    0.245E-02
DAV:   5    -0.164581508688E+04    0.61057E-05   -0.13405E-04 14696   0.174E-02    0.716E-03
DAV:   6    -0.164581508514E+04    0.17432E-05   -0.13847E-05  7920   0.590E-03
   5 F= -.16458151E+04 E0= -.16458216E+04  d E =-.229953E-02
       N       E                     dE             d eps       ncg     rms          rms(c)
DAV:   1    -0.164581548494E+04   -0.39806E-03   -0.62532E-02 12634   0.313E-01    0.402E-02
DAV:   2    -0.164581551969E+04   -0.34747E-04   -0.84865E-04 16528   0.523E-02    0.254E-02
DAV:   3    -0.164581550842E+04    0.11269E-04   -0.16306E-04 17390   0.228E-02    0.189E-02
DAV:   4    -0.164581550608E+04    0.23447E-05   -0.34445E-05 10208   0.117E-02    0.795E-03
DAV:   5    -0.164581551008E+04   -0.40077E-05   -0.15328E-05  7416   0.677E-03
   6 F= -.16458155E+04 E0= -.16458220E+04  d E =-.424945E-03
       N       E                     dE             d eps       ncg     rms          rms(c)
DAV:   1    -0.164581567177E+04   -0.16570E-03   -0.24270E-02 12592   0.199E-01    0.309E-02
DAV:   2    -0.164581563725E+04    0.34518E-04   -0.28828E-04 16096   0.327E-02    0.186E-02
DAV:   3    -0.164581561875E+04    0.18506E-04   -0.67095E-05 13752   0.158E-02    0.133E-02
DAV:   4    -0.164581559707E+04    0.21678E-04   -0.23440E-05  7992   0.927E-03    0.351E-03
DAV:   5    -0.164581559442E+04    0.26504E-05   -0.77205E-06  7016   0.501E-03
   7 F= -.16458156E+04 E0= -.16458222E+04  d E =-.843350E-04
       N       E                     dE             d eps       ncg     rms          rms(c)
DAV:   1    -0.164581565738E+04   -0.60307E-04   -0.25708E-03 12724   0.759E-02    0.242E-02
DAV:   2    -0.164581565262E+04    0.47566E-05   -0.33178E-05  8088   0.907E-03    0.122E-02
DAV:   3    -0.164581566476E+04   -0.12139E-04   -0.25281E-05  6982   0.689E-03    0.224E-03
DAV:   4    -0.164581566822E+04   -0.34662E-05   -0.49535E-06  6728   0.508E-03    0.114E-03
DAV:   5    -0.164581567004E+04   -0.18178E-05   -0.18254E-06  6720   0.238E-03
   8 F= -.16458157E+04 E0= -.16458222E+04  d E =-.756238E-04
       N       E                     dE             d eps       ncg     rms          rms(c)
DAV:   1    -0.164581572721E+04   -0.58985E-04   -0.52518E-03 12616   0.915E-02    0.121E-02
DAV:   2    -0.164581571995E+04    0.72558E-05   -0.45074E-05 11304   0.131E-02    0.784E-03
DAV:   3    -0.164581571625E+04    0.37055E-05   -0.98525E-06  7566   0.746E-03    0.563E-03
DAV:   4    -0.164581570977E+04    0.64796E-05   -0.70394E-06  6776   0.449E-03    0.105E-03
DAV:   5    -0.164581570995E+04   -0.18671E-06   -0.21975E-06  6680   0.303E-03
   9 F= -.16458157E+04 E0= -.16458222E+04  d E =-.399127E-04
       N       E                     dE             d eps       ncg     rms          rms(c)
DAV:   1    -0.164581573107E+04   -0.21298E-04   -0.30822E-03 12592   0.694E-02    0.776E-03
DAV:   2    -0.164581573379E+04   -0.27252E-05   -0.20031E-05  7896   0.852E-03    0.544E-03
DAV:   3    -0.164581573457E+04   -0.78046E-06   -0.58812E-06  6888   0.510E-03    0.376E-03
DAV:   4    -0.164581573667E+04   -0.20957E-05   -0.43121E-06  6680   0.381E-03    0.695E-04
DAV:   5    -0.164581573657E+04    0.92283E-07   -0.18942E-06  6670   0.266E-03
  10 F= -.16458157E+04 E0= -.16458223E+04  d E =-.266207E-04
       N       E                     dE             d eps       ncg     rms          rms(c)
DAV:   1    -0.164581575154E+04   -0.14875E-04   -0.72887E-04 12592   0.353E-02    0.706E-03
DAV:   2    -0.164581574418E+04    0.73665E-05   -0.69199E-06  6626   0.455E-03    0.391E-03
DAV:   3    -0.164581573994E+04    0.42362E-05   -0.32141E-06  6560   0.355E-03    0.178E-03
DAV:   4    -0.164581573764E+04    0.23011E-05   -0.16689E-06  6626   0.282E-03    0.625E-04
DAV:   5    -0.164581573726E+04    0.37358E-06   -0.84579E-07  6626   0.168E-03
  11 F= -.16458157E+04 E0= -.16458223E+04  d E =-.689457E-06
       N       E                     dE             d eps       ncg     rms          rms(c)
DAV:   1    -0.164581574470E+04   -0.70643E-05   -0.65247E-04 12592   0.327E-02    0.544E-03
DAV:   2    -0.164581574792E+04   -0.32154E-05   -0.49252E-06  6563   0.375E-03    0.322E-03
DAV:   3    -0.164581575107E+04   -0.31478E-05   -0.22732E-06  6555   0.254E-03    0.100E-03
DAV:   4    -0.164581575205E+04   -0.98379E-06   -0.95776E-07  6563   0.207E-03    0.490E-04
DAV:   5    -0.164581575229E+04   -0.23614E-06   -0.50310E-07  6550   0.130E-03
  12 F= -.16458158E+04 E0= -.16458223E+04  d E =-.150210E-04
       N       E                     dE             d eps       ncg     rms          rms(c)
DAV:   1    -0.164581576258E+04   -0.10530E-04   -0.11129E-03 12560   0.416E-02    0.448E-03
DAV:   2    -0.164581576202E+04    0.56261E-06   -0.66650E-06  6515   0.446E-03    0.321E-03
DAV:   3    -0.164581576143E+04    0.58530E-06   -0.22310E-06  6451   0.262E-03    0.158E-03
DAV:   4    -0.164581576089E+04    0.54365E-06   -0.13217E-06  6452   0.217E-03    0.402E-04
DAV:   5    -0.164581576106E+04   -0.17635E-06   -0.67898E-07  6436   0.150E-03
  13 F= -.16458158E+04 E0= -.16458223E+04  d E =-.877843E-05
       N       E                     dE             d eps       ncg     rms          rms(c)
DAV:   1    -0.164581576601E+04   -0.51183E-05   -0.13851E-03 12560   0.468E-02    0.587E-03
DAV:   2    -0.164581576905E+04   -0.30471E-05   -0.87881E-06  7226   0.496E-03    0.387E-03
DAV:   3    -0.164581577205E+04   -0.29946E-05   -0.36136E-06  6515   0.291E-03    0.919E-04
DAV:   4    -0.164581577273E+04   -0.68321E-06   -0.14887E-06  6428   0.221E-03    0.499E-04
DAV:   5    -0.164581577280E+04   -0.64970E-07   -0.80515E-07  6428   0.159E-03
  14 F= -.16458158E+04 E0= -.16458223E+04  d E =-.117318E-04
       N       E                     dE             d eps       ncg     rms          rms(c)
DAV:   1    -0.164581577780E+04   -0.50690E-05   -0.47470E-05 11792   0.109E-02    0.367E-03
DAV:   2    -0.164581577368E+04    0.41231E-05   -0.10254E-06  6428   0.168E-03    0.178E-03
DAV:   3    -0.164581577067E+04    0.30038E-05   -0.60007E-07  6404   0.114E-03    0.440E-04
DAV:   4    -0.164581577004E+04    0.63191E-06   -0.16386E-07  6404   0.954E-04    0.218E-04
DAV:   5    -0.164581576971E+04    0.32954E-06   -0.76714E-08  6404   0.481E-04
  15 F= -.16458158E+04 E0= -.16458223E+04  d E =0.308433E-05
       N       E                     dE             d eps       ncg     rms          rms(c)
DAV:   1    -0.164581577438E+04   -0.43431E-05   -0.61640E-04 12560   0.310E-02    0.320E-03
DAV:   2    -0.164581577487E+04   -0.48905E-06   -0.33191E-06  6380   0.308E-03    0.232E-03
DAV:   3    -0.164581577527E+04   -0.39989E-06   -0.12740E-06  6380   0.171E-03    0.358E-04
DAV:   4    -0.164581577537E+04   -0.97429E-07   -0.50464E-07  6380   0.125E-03    0.273E-04
DAV:   5    -0.164581577535E+04    0.15513E-07   -0.28178E-07  6380   0.903E-04
  16 F= -.16458158E+04 E0= -.16458223E+04  d E =-.564348E-05
       N       E                     dE             d eps       ncg     rms          rms(c)
DAV:   1    -0.164581578448E+04   -0.91065E-05   -0.31655E-03 12560   0.702E-02    0.735E-03
DAV:   2    -0.164581578349E+04    0.98771E-06   -0.17506E-05  8480   0.706E-03    0.527E-03
DAV:   3    -0.164581578123E+04    0.22582E-05   -0.63982E-06  6658   0.383E-03    0.915E-04
DAV:   4    -0.164581578118E+04    0.54757E-07   -0.26105E-06  6428   0.279E-03    0.536E-04
DAV:   5    -0.164581578144E+04   -0.26350E-06   -0.14183E-06  6420   0.207E-03
  17 F= -.16458158E+04 E0= -.16458223E+04  d E =-.608487E-05
       N       E                     dE             d eps       ncg     rms          rms(c)
DAV:   1    -0.164581577535E+04    0.58298E-05   -0.86290E-04 12560   0.374E-02    0.536E-03
DAV:   2    -0.164581577827E+04   -0.29222E-05   -0.42633E-06  6380   0.347E-03    0.326E-03
DAV:   3    -0.164581578108E+04   -0.28150E-05   -0.16180E-06  6380   0.191E-03    0.975E-04
DAV:   4    -0.164581578196E+04   -0.88019E-06   -0.47784E-07  6380   0.138E-03    0.461E-04
DAV:   5    -0.164581578208E+04   -0.11885E-06   -0.17881E-07  6380   0.846E-04
  18 F= -.16458158E+04 E0= -.16458223E+04  d E =-.642920E-06
       N       E                     dE             d eps       ncg     rms          rms(c)
DAV:   1    -0.164581578789E+04   -0.59261E-05   -0.84740E-04 12560   0.364E-02    0.387E-03
DAV:   2    -0.164581578670E+04    0.11939E-05   -0.41631E-06  6380   0.348E-03    0.271E-03
DAV:   3    -0.164581578512E+04    0.15734E-05   -0.14365E-06  6380   0.178E-03    0.476E-04
DAV:   4    -0.164581578497E+04    0.15220E-06   -0.51695E-07  6380   0.122E-03    0.259E-04
DAV:   5    -0.164581578507E+04   -0.10064E-06   -0.26355E-07  6380   0.891E-04
  19 F= -.16458158E+04 E0= -.16458223E+04  d E =-.298835E-05
       N       E                     dE             d eps       ncg     rms          rms(c)
DAV:   1    -0.164581578723E+04   -0.22632E-05   -0.55153E-04 12552   0.292E-02    0.307E-03
DAV:   2    -0.164581578756E+04   -0.32645E-06   -0.32426E-06  6380   0.304E-03    0.224E-03
DAV:   3    -0.164581578775E+04   -0.19156E-06   -0.13897E-06  6380   0.173E-03    0.352E-04
DAV:   4    -0.164581578779E+04   -0.40455E-07   -0.54588E-07  6380   0.113E-03    0.194E-04
DAV:   5    -0.164581578781E+04   -0.21885E-07   -0.30102E-07  6380   0.864E-04
  20 F= -.16458158E+04 E0= -.16458223E+04  d E =-.274289E-05
       N       E                     dE             d eps       ncg     rms          rms(c)
DAV:   1    -0.164581579040E+04   -0.26077E-05   -0.30635E-05  7656   0.901E-03    0.280E-03
DAV:   2    -0.164581578730E+04    0.30964E-05   -0.15706E-06  6380   0.269E-03    0.146E-03
DAV:   3    -0.164581578451E+04    0.27899E-05   -0.29764E-07  6380   0.777E-04    0.391E-04
DAV:   4    -0.164581578405E+04    0.46537E-06   -0.10049E-07  6380   0.696E-04    0.197E-04
DAV:   5    -0.164581578371E+04    0.33496E-06   -0.58219E-08  6380   0.392E-04
  21 F= -.16458158E+04 E0= -.16458223E+04  d E =0.410079E-05
       N       E                     dE             d eps       ncg     rms          rms(c)
DAV:   1    -0.164581578351E+04    0.53556E-06   -0.86766E-05 12240   0.123E-02    0.246E-03
DAV:   2    -0.164581578538E+04   -0.18660E-05   -0.75236E-07  6380   0.139E-03    0.134E-03
DAV:   3    -0.164581578707E+04   -0.16950E-05   -0.36519E-07  6380   0.888E-04    0.360E-04
DAV:   4    -0.164581578750E+04   -0.43159E-06   -0.11853E-07  6380   0.659E-04    0.194E-04
DAV:   5    -0.164581578765E+04   -0.14969E-06   -0.54374E-08  6380   0.410E-04
  22 F= -.16458158E+04 E0= -.16458223E+04  d E =-.394164E-05
       N       E                     dE             d eps       ncg     rms          rms(c)
DAV:   1    -0.164581578832E+04   -0.81503E-06   -0.78578E-05 12136   0.111E-02    0.119E-03
DAV:   2    -0.164581578835E+04   -0.25618E-07   -0.60329E-07  6380   0.127E-03    0.841E-04
DAV:   3    -0.164581578834E+04    0.95738E-08   -0.22455E-07  6380   0.696E-04    0.164E-04
DAV:   4    -0.164581578834E+04   -0.16325E-08   -0.84837E-08  6380   0.453E-04    0.755E-05
DAV:   5    -0.164581578834E+04   -0.49913E-08   -0.46346E-08  6380   0.334E-04
  23 F= -.16458158E+04 E0= -.16458223E+04  d E =-.688007E-06
