       N       E                     dE             d eps       ncg     rms          rms(c)
DAV:   1     0.205238044209E+04    0.20524E+04   -0.28311E+05 11400   0.143E+03
DAV:   2    -0.119117187155E+04   -0.32436E+04   -0.31168E+04 13172   0.280E+02
DAV:   3    -0.159909447138E+04   -0.40792E+03   -0.37331E+03 17640   0.820E+01
DAV:   4    -0.162401024192E+04   -0.24916E+02   -0.22808E+02 16072   0.168E+01
DAV:   5    -0.162511860928E+04   -0.11084E+01   -0.10849E+01 17272   0.436E+00    0.392E+01
DAV:   6    -0.158518463213E+04    0.39934E+02   -0.97845E+01 17344   0.133E+01    0.220E+01
DAV:   7    -0.157761936713E+04    0.75653E+01   -0.87766E+01 17992   0.151E+01    0.175E+01
DAV:   8    -0.156535176469E+04    0.12268E+02   -0.55916E+01 17048   0.118E+01    0.980E+00
DAV:   9    -0.156051094431E+04    0.48408E+01   -0.23778E+01 16440   0.732E+00    0.256E+00
DAV:  10    -0.156052162648E+04   -0.10682E-01   -0.41073E+00 16154   0.281E+00    0.141E+00
DAV:  11    -0.156051275070E+04    0.88758E-02   -0.49071E-01 15448   0.101E+00    0.964E-01
DAV:  12    -0.156049862409E+04    0.14127E-01   -0.14708E-01 15890   0.626E-01    0.634E-01
DAV:  13    -0.156048261752E+04    0.16007E-01   -0.64402E-02 15920   0.426E-01    0.311E-01
DAV:  14    -0.156047977827E+04    0.28393E-02   -0.19622E-02 16088   0.188E-01    0.127E-01
DAV:  15    -0.156047961317E+04    0.16510E-03   -0.40180E-03 16152   0.974E-02    0.802E-02
DAV:  16    -0.156047949566E+04    0.11751E-03   -0.12532E-03 15664   0.575E-02    0.510E-02
DAV:  17    -0.156047945529E+04    0.40365E-04   -0.59823E-04 14184   0.379E-02    0.253E-02
DAV:  18    -0.156047944176E+04    0.13530E-04   -0.16227E-04 13784   0.195E-02    0.115E-02
DAV:  19    -0.156047943564E+04    0.61208E-05   -0.36165E-05  8104   0.100E-02
   1 F= -.15604794E+04 E0= -.15604800E+04  d E =-.156048E+04
       N       E                     dE             d eps       ncg     rms          rms(c)
DAV:   1    -0.156771980319E+04   -0.72404E+01   -0.21910E+03 11368   0.714E+01    0.261E+01
DAV:   2    -0.154243185978E+04    0.25288E+02   -0.16556E+02 18120   0.166E+01    0.164E+01
DAV:   3    -0.153455728018E+04    0.78746E+01   -0.87428E+01 19456   0.123E+01    0.115E+01
DAV:   4    -0.153020917352E+04    0.43481E+01   -0.27883E+01 19240   0.765E+00    0.832E+00
DAV:   5    -0.152706740485E+04    0.31418E+01   -0.19323E+01 17224   0.547E+00    0.320E+00
DAV:   6    -0.152682074171E+04    0.24666E+00   -0.39349E+00 16960   0.272E+00    0.206E+00
DAV:   7    -0.152674052043E+04    0.80221E-01   -0.77828E-01 15864   0.131E+00    0.142E+00
DAV:   8    -0.152671645882E+04    0.24062E-01   -0.30169E-01 17832   0.609E-01    0.681E-01
DAV:   9    -0.152672305768E+04   -0.65989E-02   -0.13287E-01 17960   0.379E-01    0.387E-01
DAV:  10    -0.152672551731E+04   -0.24596E-02   -0.34160E-02 17368   0.284E-01    0.317E-01
DAV:  11    -0.152672198998E+04    0.35273E-02   -0.17161E-02 19008   0.184E-01    0.130E-01
DAV:  12    -0.152672215698E+04   -0.16700E-03   -0.77738E-03 17968   0.992E-02    0.800E-02
DAV:  13    -0.152672252678E+04   -0.36980E-03   -0.16110E-03 16328   0.493E-02    0.390E-02
DAV:  14    -0.152672263695E+04   -0.11016E-03   -0.58198E-04 18440   0.313E-02    0.313E-02
DAV:  15    -0.152672263114E+04    0.58056E-05   -0.16323E-04 15832   0.195E-02    0.230E-02
DAV:  16    -0.152672262062E+04    0.10522E-04   -0.76821E-05 12864   0.124E-02    0.112E-02
DAV:  17    -0.152672262471E+04   -0.40880E-05   -0.34585E-05  7584   0.891E-03
   2 F= -.15267226E+04 E0= -.15267251E+04  d E =0.337568E+02
       N       E                     dE             d eps       ncg     rms          rms(c)
DAV:   1    -0.158786886483E+04   -0.61146E+02   -0.10536E+03 11368   0.549E+01    0.178E+01
DAV:   2    -0.157446798896E+04    0.13401E+02   -0.41379E+01 16702   0.991E+00    0.866E+00
DAV:   3    -0.157234635026E+04    0.21216E+01   -0.21659E+01 17072   0.681E+00    0.678E+00
DAV:   4    -0.157045215844E+04    0.18942E+01   -0.92418E+00 17640   0.511E+00    0.427E+00
DAV:   5    -0.156949287604E+04    0.95928E+00   -0.53283E+00 16472   0.342E+00    0.126E+00
DAV:   6    -0.156947794955E+04    0.14926E-01   -0.92777E-01 14792   0.139E+00    0.797E-01
DAV:   7    -0.156948256832E+04   -0.46188E-02   -0.14215E-01 15680   0.559E-01    0.586E-01
DAV:   8    -0.156948601677E+04   -0.34485E-02   -0.40319E-02 16000   0.268E-01    0.335E-01
DAV:   9    -0.156949791311E+04   -0.11896E-01   -0.44811E-02 16640   0.236E-01    0.242E-01
DAV:  10    -0.156949707320E+04    0.83992E-03   -0.87361E-03 16072   0.155E-01    0.120E-01
DAV:  11    -0.156949689453E+04    0.17866E-03   -0.28773E-03 16752   0.738E-02    0.604E-02
DAV:  12    -0.156949713241E+04   -0.23788E-03   -0.16862E-03 16944   0.534E-02    0.437E-02
DAV:  13    -0.156949728263E+04   -0.15021E-03   -0.40342E-04 14288   0.280E-02    0.224E-02
DAV:  14    -0.156949727862E+04    0.40071E-05   -0.99092E-05 12928   0.139E-02
   3 F= -.15694973E+04 E0= -.15694953E+04  d E =-.427747E+02
       N       E                     dE             d eps       ncg     rms          rms(c)
DAV:   1    -0.156978210157E+04   -0.28482E+00   -0.26702E+01 11368   0.703E+00    0.980E-01
DAV:   2    -0.156978631688E+04   -0.42153E-02   -0.44578E-01 16504   0.776E-01    0.617E-01
DAV:   3    -0.156978175439E+04    0.45625E-02   -0.84713E-02 18656   0.441E-01    0.506E-01
DAV:   4    -0.156977222724E+04    0.95271E-02   -0.38796E-02 18160   0.310E-01    0.283E-01
DAV:   5    -0.156976943468E+04    0.27926E-02   -0.19551E-02 15312   0.198E-01    0.107E-01
DAV:   6    -0.156976928444E+04    0.15023E-03   -0.45753E-03 15544   0.991E-02    0.622E-02
DAV:   7    -0.156976928520E+04   -0.75584E-06   -0.94413E-04 16248   0.492E-02    0.487E-02
DAV:   8    -0.156976922013E+04    0.65069E-04   -0.37925E-04 17256   0.318E-02    0.277E-02
DAV:   9    -0.156976922588E+04   -0.57469E-05   -0.15543E-04 15336   0.163E-02    0.144E-02
DAV:  10    -0.156976922897E+04   -0.30925E-05   -0.29482E-05  8088   0.104E-02
   4 F= -.15697692E+04 E0= -.15697698E+04  d E =-.271950E+00
       N       E                     dE             d eps       ncg     rms          rms(c)
DAV:   1    -0.156981837468E+04   -0.49149E-01   -0.43823E+00 11368   0.280E+00    0.459E-01
DAV:   2    -0.156981962197E+04   -0.12473E-02   -0.10778E-01 17632   0.453E-01    0.339E-01
DAV:   3    -0.156981482503E+04    0.47969E-02   -0.34119E-02 18416   0.296E-01    0.220E-01
DAV:   4    -0.156981297273E+04    0.18523E-02   -0.81981E-03 18616   0.133E-01    0.139E-01
DAV:   5    -0.156981238108E+04    0.59165E-03   -0.36005E-03 15928   0.857E-02    0.734E-02
DAV:   6    -0.156981219088E+04    0.19019E-03   -0.14589E-03 15640   0.597E-02    0.382E-02
DAV:   7    -0.156981214333E+04    0.47556E-04   -0.39371E-04 16112   0.337E-02    0.242E-02
DAV:   8    -0.156981214030E+04    0.30238E-05   -0.99676E-05 13080   0.143E-02
   5 F= -.15698121E+04 E0= -.15698105E+04  d E =-.429113E-01
       N       E                     dE             d eps       ncg     rms          rms(c)
DAV:   1    -0.156982808674E+04   -0.15943E-01   -0.14128E+00 11434   0.162E+00    0.233E-01
DAV:   2    -0.156982846335E+04   -0.37661E-03   -0.20781E-02 16720   0.189E-01    0.170E-01
DAV:   3    -0.156982762890E+04    0.83445E-03   -0.58106E-03 18442   0.123E-01    0.122E-01
DAV:   4    -0.156982717258E+04    0.45632E-03   -0.21397E-03 15872   0.683E-02    0.610E-02
DAV:   5    -0.156982709415E+04    0.78431E-04   -0.10444E-03 15456   0.495E-02    0.269E-02
DAV:   6    -0.156982708592E+04    0.82310E-05   -0.27174E-04 15680   0.275E-02    0.177E-02
DAV:   7    -0.156982707687E+04    0.90461E-05   -0.71278E-05 12864   0.144E-02
   6 F= -.15698271E+04 E0= -.15698261E+04  d E =-.149366E-01
       N       E                     dE             d eps       ncg     rms          rms(c)
DAV:   1    -0.156983776828E+04   -0.10682E-01   -0.57701E-01 11416   0.104E+00    0.203E-01
DAV:   2    -0.156983737281E+04    0.39546E-03   -0.15218E-02 17672   0.184E-01    0.149E-01
DAV:   3    -0.156983633852E+04    0.10343E-02   -0.63679E-03 18426   0.130E-01    0.945E-02
DAV:   4    -0.156983593726E+04    0.40126E-03   -0.15716E-03 17072   0.578E-02    0.578E-02
DAV:   5    -0.156983577893E+04    0.15833E-03   -0.72453E-04 15576   0.406E-02    0.293E-02
DAV:   6    -0.156983573204E+04    0.46890E-04   -0.25476E-04 15584   0.261E-02    0.160E-02
DAV:   7    -0.156983572144E+04    0.10595E-04   -0.63073E-05 12208   0.141E-02    0.999E-03
DAV:   8    -0.156983572344E+04   -0.19968E-05   -0.16846E-05  6680   0.680E-03
   7 F= -.15698357E+04 E0= -.15698338E+04  d E =-.864657E-02
       N       E                     dE             d eps       ncg     rms          rms(c)
DAV:   1    -0.156984106992E+04   -0.53485E-02   -0.51096E-01 11398   0.946E-01    0.106E-01
DAV:   2    -0.156984176311E+04   -0.69318E-03   -0.71788E-03 17392   0.120E-01    0.105E-01
DAV:   3    -0.156984124091E+04    0.52220E-03   -0.21432E-03 18118   0.767E-02    0.607E-02
DAV:   4    -0.156984118907E+04    0.51834E-04   -0.49062E-04 16176   0.313E-02    0.368E-02
DAV:   5    -0.156984117139E+04    0.17686E-04   -0.28779E-04 15368   0.260E-02    0.159E-02
DAV:   6    -0.156984116477E+04    0.66190E-05   -0.79868E-05 13368   0.157E-02
   8 F= -.15698412E+04 E0= -.15698393E+04  d E =-.544133E-02
       N       E                     dE             d eps       ncg     rms          rms(c)
DAV:   1    -0.156984420340E+04   -0.30320E-02   -0.25180E-01 11482   0.669E-01    0.971E-02
DAV:   2    -0.156984432548E+04   -0.12208E-03   -0.44542E-03 17504   0.995E-02    0.828E-02
DAV:   3    -0.156984398269E+04    0.34279E-03   -0.16782E-03 18330   0.675E-02    0.490E-02
DAV:   4    -0.156984388971E+04    0.92976E-04   -0.35834E-04 16280   0.268E-02    0.318E-02
DAV:   5    -0.156984384002E+04    0.49695E-04   -0.18911E-04 15440   0.213E-02    0.163E-02
DAV:   6    -0.156984382271E+04    0.17315E-04   -0.67232E-05 12976   0.144E-02    0.830E-03
DAV:   7    -0.156984382014E+04    0.25664E-05   -0.17107E-05  6744   0.795E-03
   9 F= -.15698438E+04 E0= -.15698416E+04  d E =-.265537E-02
       N       E                     dE             d eps       ncg     rms          rms(c)
DAV:   1    -0.156984547394E+04   -0.16512E-02   -0.10190E-01 11488   0.430E-01    0.602E-02
DAV:   2    -0.156984551435E+04   -0.40415E-04   -0.11885E-03 16584   0.472E-02    0.435E-02
DAV:   3    -0.156984546992E+04    0.44439E-04   -0.36404E-04 18452   0.313E-02    0.320E-02
DAV:   4    -0.156984545640E+04    0.13511E-04   -0.11670E-04 14448   0.163E-02    0.140E-02
DAV:   5    -0.156984546598E+04   -0.95716E-05   -0.49285E-05 10200   0.122E-02
  10 F= -.15698455E+04 E0= -.15698434E+04  d E =-.164584E-02
       N       E                     dE             d eps       ncg     rms          rms(c)
DAV:   1    -0.156984702156E+04   -0.15652E-02   -0.12698E-01 11458   0.470E-01    0.570E-02
DAV:   2    -0.156984709792E+04   -0.76360E-04   -0.17062E-03 17088   0.597E-02    0.500E-02
DAV:   3    -0.156984698530E+04    0.11262E-03   -0.53960E-04 18044   0.388E-02    0.314E-02
DAV:   4    -0.156984695059E+04    0.34703E-04   -0.11823E-04 14968   0.155E-02    0.201E-02
DAV:   5    -0.156984692944E+04    0.21155E-04   -0.65042E-05 12064   0.132E-02    0.931E-03
DAV:   6    -0.156984692286E+04    0.65781E-05   -0.18586E-05  7448   0.921E-03
  11 F= -.15698469E+04 E0= -.15698447E+04  d E =-.145688E-02
       N       E                     dE             d eps       ncg     rms          rms(c)
DAV:   1    -0.156984802034E+04   -0.10909E-02   -0.11251E-01 11434   0.441E-01    0.448E-02
DAV:   2    -0.156984811481E+04   -0.94472E-04   -0.10979E-03 16552   0.444E-02    0.381E-02
DAV:   3    -0.156984807513E+04    0.39683E-04   -0.22605E-04 16928   0.251E-02    0.273E-02
DAV:   4    -0.156984807120E+04    0.39330E-05   -0.78654E-05 12392   0.133E-02    0.109E-02
DAV:   5    -0.156984807328E+04   -0.20832E-05   -0.25125E-05  7754   0.982E-03
  12 F= -.15698481E+04 E0= -.15698460E+04  d E =-.115042E-02
       N       E                     dE             d eps       ncg     rms          rms(c)
DAV:   1    -0.156984866506E+04   -0.59386E-03   -0.29216E-02 11512   0.230E-01    0.361E-02
DAV:   2    -0.156984862888E+04    0.36175E-04   -0.44788E-04 17016   0.301E-02    0.251E-02
DAV:   3    -0.156984860256E+04    0.26323E-04   -0.14758E-04 16410   0.207E-02    0.179E-02
DAV:   4    -0.156984858051E+04    0.22045E-04   -0.40135E-05  9632   0.105E-02    0.103E-02
DAV:   5    -0.156984856537E+04    0.15142E-04   -0.18550E-05  6568   0.776E-03    0.426E-03
DAV:   6    -0.156984856294E+04    0.24265E-05   -0.56555E-06  6384   0.524E-03
  13 F= -.15698486E+04 E0= -.15698463E+04  d E =-.489665E-03
       N       E                     dE             d eps       ncg     rms          rms(c)
DAV:   1    -0.156984921741E+04   -0.65204E-03   -0.54840E-02 11428   0.308E-01    0.308E-02
DAV:   2    -0.156984925897E+04   -0.41559E-04   -0.49812E-04 16448   0.287E-02    0.246E-02
DAV:   3    -0.156984924807E+04    0.10907E-04   -0.67835E-05 12536   0.146E-02    0.189E-02
DAV:   4    -0.156984924983E+04   -0.17652E-05   -0.40007E-05  9440   0.989E-03    0.671E-03
DAV:   5    -0.156984925155E+04   -0.17154E-05   -0.10883E-05  6720   0.684E-03
  14 F= -.15698493E+04 E0= -.15698471E+04  d E =-.688604E-03
       N       E                     dE             d eps       ncg     rms          rms(c)
DAV:   1    -0.156984985410E+04   -0.60427E-03   -0.59071E-02 11440   0.319E-01    0.325E-02
DAV:   2    -0.156984987786E+04   -0.23756E-04   -0.60319E-04 16712   0.329E-02    0.270E-02
DAV:   3    -0.156984985439E+04    0.23472E-04   -0.11917E-04 15312   0.189E-02    0.195E-02
DAV:   4    -0.156984983925E+04    0.15135E-04   -0.33978E-05  8144   0.941E-03    0.110E-02
DAV:   5    -0.156984983026E+04    0.89933E-05   -0.17317E-05  6696   0.805E-03
  15 F= -.15698498E+04 E0= -.15698476E+04  d E =-.578710E-03
       N       E                     dE             d eps       ncg     rms          rms(c)
DAV:   1    -0.156985012740E+04   -0.28815E-03   -0.18729E-02 11512   0.182E-01    0.215E-02
DAV:   2    -0.156985014358E+04   -0.16183E-04   -0.17842E-04 16264   0.167E-02    0.141E-02
DAV:   3    -0.156985014632E+04   -0.27363E-05   -0.18538E-05  7836   0.869E-03    0.107E-02
DAV:   4    -0.156985015015E+04   -0.38315E-05   -0.11053E-05  6952   0.751E-03    0.447E-03
DAV:   5    -0.156985015414E+04   -0.39875E-05   -0.52620E-06  6248   0.448E-03
  16 F= -.15698502E+04 E0= -.15698480E+04  d E =-.323880E-03
       N       E                     dE             d eps       ncg     rms          rms(c)
DAV:   1    -0.156985052085E+04   -0.37070E-03   -0.27001E-02 11440   0.216E-01    0.233E-02
DAV:   2    -0.156985052016E+04    0.69037E-06   -0.26780E-04 16816   0.213E-02    0.175E-02
DAV:   3    -0.156985051102E+04    0.91398E-05   -0.37418E-05  9308   0.117E-02    0.135E-02
DAV:   4    -0.156985050132E+04    0.97005E-05   -0.17687E-05  6600   0.756E-03    0.743E-03
DAV:   5    -0.156985049471E+04    0.66150E-05   -0.97152E-06  6266   0.605E-03
  17 F= -.15698505E+04 E0= -.15698483E+04  d E =-.340571E-03
       N       E                     dE             d eps       ncg     rms          rms(c)
DAV:   1    -0.156985082771E+04   -0.32639E-03   -0.32115E-02 11440   0.235E-01    0.217E-02
DAV:   2    -0.156985085156E+04   -0.23849E-04   -0.27856E-04 16688   0.206E-02    0.168E-02
DAV:   3    -0.156985084950E+04    0.20664E-05   -0.18617E-05  7738   0.883E-03    0.134E-02
DAV:   4    -0.156985085124E+04   -0.17433E-05   -0.18992E-05  6560   0.749E-03    0.331E-03
DAV:   5    -0.156985085208E+04   -0.84193E-06   -0.51819E-06  6248   0.507E-03
  18 F= -.15698509E+04 E0= -.15698487E+04  d E =-.357374E-03
       N       E                     dE             d eps       ncg     rms          rms(c)
DAV:   1    -0.156985110448E+04   -0.25324E-03   -0.18882E-02 11464   0.181E-01    0.202E-02
DAV:   2    -0.156985109774E+04    0.67477E-05   -0.19327E-04 16376   0.179E-02    0.142E-02
DAV:   3    -0.156985109088E+04    0.68542E-05   -0.24017E-05  8074   0.982E-03    0.110E-02
DAV:   4    -0.156985108312E+04    0.77613E-05   -0.12574E-05  6464   0.700E-03    0.632E-03
DAV:   5    -0.156985107660E+04    0.65177E-05   -0.77684E-06  6128   0.516E-03
  19 F= -.15698511E+04 E0= -.15698488E+04  d E =-.224519E-03
       N       E                     dE             d eps       ncg     rms          rms(c)
DAV:   1    -0.156985125108E+04   -0.16796E-03   -0.10917E-02 11452   0.138E-01    0.149E-02
DAV:   2    -0.156985126272E+04   -0.11637E-04   -0.96944E-05 14840   0.123E-02    0.104E-02
DAV:   3    -0.156985126442E+04   -0.17001E-05   -0.99771E-06  6928   0.632E-03    0.812E-03
DAV:   4    -0.156985126821E+04   -0.37880E-05   -0.65057E-06  6232   0.520E-03    0.265E-03
DAV:   5    -0.156985127023E+04   -0.20225E-05   -0.26056E-06  6050   0.321E-03
  20 F= -.15698513E+04 E0= -.15698491E+04  d E =-.193630E-03
       N       E                     dE             d eps       ncg     rms          rms(c)
DAV:   1    -0.156985149891E+04   -0.23070E-03   -0.20882E-02 11440   0.189E-01    0.180E-02
DAV:   2    -0.156985150356E+04   -0.46551E-05   -0.18566E-04 16264   0.168E-02    0.136E-02
DAV:   3    -0.156985149970E+04    0.38665E-05   -0.13699E-05  7324   0.745E-03    0.107E-02
DAV:   4    -0.156985149353E+04    0.61716E-05   -0.10344E-05  6336   0.604E-03    0.473E-03
DAV:   5    -0.156985149092E+04    0.26072E-05   -0.49724E-06  6080   0.451E-03
  21 F= -.15698515E+04 E0= -.15698493E+04  d E =-.220687E-03
       N       E                     dE             d eps       ncg     rms          rms(c)
DAV:   1    -0.156985166607E+04   -0.17254E-03   -0.16492E-02 11440   0.168E-01    0.161E-02
DAV:   2    -0.156985168066E+04   -0.14589E-04   -0.14383E-04 15904   0.146E-02    0.118E-02
DAV:   3    -0.156985168201E+04   -0.13575E-05   -0.10035E-05  6966   0.628E-03    0.869E-03
DAV:   4    -0.156985168460E+04   -0.25882E-05   -0.72008E-06  6360   0.574E-03    0.276E-03
DAV:   5    -0.156985168607E+04   -0.14660E-05   -0.28015E-06  6024   0.350E-03
  22 F= -.15698517E+04 E0= -.15698495E+04  d E =-.195150E-03
       N       E                     dE             d eps       ncg     rms          rms(c)
DAV:   1    -0.156985180108E+04   -0.11647E-03   -0.57181E-03 11464   0.100E-01    0.123E-02
DAV:   2    -0.156985179228E+04    0.87950E-05   -0.53167E-05 11120   0.999E-03    0.796E-03
DAV:   3    -0.156985178920E+04    0.30766E-05   -0.11344E-05  6628   0.638E-03    0.613E-03
DAV:   4    -0.156985178475E+04    0.44524E-05   -0.42721E-06  5984   0.423E-03    0.335E-03
DAV:   5    -0.156985178114E+04    0.36077E-05   -0.27320E-06  5960   0.293E-03
  23 F= -.15698518E+04 E0= -.15698496E+04  d E =-.950754E-04
       N       E                     dE             d eps       ncg     rms          rms(c)
DAV:   1    -0.156985192101E+04   -0.13626E-03   -0.12309E-02 11428   0.145E-01    0.137E-02
DAV:   2    -0.156985193134E+04   -0.10335E-04   -0.10807E-04 15344   0.124E-02    0.103E-02
DAV:   3    -0.156985193218E+04   -0.84038E-06   -0.75481E-06  6508   0.527E-03    0.712E-03
DAV:   4    -0.156985193371E+04   -0.15274E-05   -0.55213E-06  6136   0.500E-03    0.190E-03
DAV:   5    -0.156985193410E+04   -0.38590E-06   -0.18049E-06  5954   0.291E-03
  24 F= -.15698519E+04 E0= -.15698498E+04  d E =-.152954E-03
       N       E                     dE             d eps       ncg     rms          rms(c)
DAV:   1    -0.156985207235E+04   -0.13863E-03   -0.12643E-02 11440   0.147E-01    0.140E-02
DAV:   2    -0.156985207289E+04   -0.54257E-06   -0.11289E-04 15680   0.130E-02    0.104E-02
DAV:   3    -0.156985206998E+04    0.29085E-05   -0.85918E-06  6676   0.573E-03    0.796E-03
DAV:   4    -0.156985206572E+04    0.42597E-05   -0.56572E-06  6032   0.483E-03    0.385E-03
DAV:   5    -0.156985206328E+04    0.24418E-05   -0.30367E-06  5960   0.346E-03
  25 F= -.15698521E+04 E0= -.15698499E+04  d E =-.129180E-03
       N       E                     dE             d eps       ncg     rms          rms(c)
DAV:   1    -0.156985213583E+04   -0.70106E-04   -0.45487E-03 11464   0.889E-02    0.949E-03
DAV:   2    -0.156985214144E+04   -0.56163E-05   -0.26801E-05  7880   0.799E-03    0.631E-03
DAV:   3    -0.156985214415E+04   -0.27125E-05   -0.96315E-06  6180   0.518E-03    0.453E-03
DAV:   4    -0.156985214697E+04   -0.28186E-05   -0.54783E-06  5960   0.425E-03    0.164E-03
DAV:   5    -0.156985214827E+04   -0.12955E-05   -0.29826E-06  5936   0.285E-03
  26 F= -.15698521E+04 E0= -.15698500E+04  d E =-.849905E-04
       N       E                     dE             d eps       ncg     rms          rms(c)
DAV:   1    -0.156985224829E+04   -0.10131E-03   -0.76400E-03 11428   0.114E-01    0.120E-02
DAV:   2    -0.156985224601E+04    0.22784E-05   -0.75664E-05 13344   0.107E-02    0.858E-03
DAV:   3    -0.156985224350E+04    0.25117E-05   -0.86371E-06  6280   0.547E-03    0.640E-03
DAV:   4    -0.156985224007E+04    0.34242E-05   -0.40859E-06  5960   0.421E-03    0.338E-03
DAV:   5    -0.156985223756E+04    0.25151E-05   -0.23875E-06  5930   0.296E-03
  27 F= -.15698522E+04 E0= -.15698501E+04  d E =-.892899E-04
       N       E                     dE             d eps       ncg     rms          rms(c)
DAV:   1    -0.156985230413E+04   -0.64052E-04   -0.44314E-03 11452   0.871E-02    0.820E-03
DAV:   2    -0.156985230808E+04   -0.39569E-05   -0.24665E-05  7760   0.758E-03    0.589E-03
DAV:   3    -0.156985230979E+04   -0.17045E-05   -0.89605E-06  6064   0.464E-03    0.410E-03
DAV:   4    -0.156985231198E+04   -0.21960E-05   -0.54175E-06  5936   0.396E-03    0.101E-03
DAV:   5    -0.156985231235E+04   -0.36539E-06   -0.27361E-06  5936   0.271E-03
  28 F= -.15698523E+04 E0= -.15698502E+04  d E =-.747897E-04
       N       E                     dE             d eps       ncg     rms          rms(c)
DAV:   1    -0.156985241539E+04   -0.10341E-03   -0.11383E-02 11392   0.139E-01    0.135E-02
DAV:   2    -0.156985241643E+04   -0.10370E-05   -0.11133E-04 15600   0.125E-02    0.999E-03
DAV:   3    -0.156985241308E+04    0.33526E-05   -0.76644E-06  6296   0.511E-03    0.696E-03
DAV:   4    -0.156985240973E+04    0.33461E-05   -0.47930E-06  6008   0.475E-03    0.357E-03
DAV:   5    -0.156985240758E+04    0.21471E-05   -0.24927E-06  5924   0.335E-03
  29 F= -.15698524E+04 E0= -.15698502E+04  d E =-.952355E-04
       N       E                     dE             d eps       ncg     rms          rms(c)
DAV:   1    -0.156985241571E+04   -0.59775E-05   -0.16211E-04 11412   0.193E-02    0.502E-03
DAV:   2    -0.156985241948E+04   -0.37754E-05   -0.27056E-06  5936   0.278E-03    0.255E-03
DAV:   3    -0.156985242120E+04   -0.17158E-05   -0.12171E-06  5936   0.257E-03    0.208E-03
DAV:   4    -0.156985242290E+04   -0.17009E-05   -0.66627E-07  5918   0.181E-03    0.758E-04
DAV:   5    -0.156985242414E+04   -0.12364E-05   -0.36401E-07  5918   0.969E-04
  30 F= -.15698524E+04 E0= -.15698503E+04  d E =-.165533E-04
       N       E                     dE             d eps       ncg     rms          rms(c)
DAV:   1    -0.156985250310E+04   -0.80200E-04   -0.77312E-03 11410   0.115E-01    0.104E-02
DAV:   2    -0.156985250528E+04   -0.21750E-05   -0.58587E-05 11704   0.973E-03    0.793E-03
DAV:   3    -0.156985250412E+04    0.11569E-05   -0.85293E-06  6086   0.503E-03    0.484E-03
DAV:   4    -0.156985250289E+04    0.12272E-05   -0.39130E-06  5984   0.405E-03    0.180E-03
DAV:   5    -0.156985250268E+04    0.20750E-06   -0.16581E-06  5918   0.265E-03
  31 F= -.15698525E+04 E0= -.15698504E+04  d E =-.785466E-04
       N       E                     dE             d eps       ncg     rms          rms(c)
DAV:   1    -0.156985267069E+04   -0.16780E-03   -0.65768E-02 11368   0.335E-01    0.300E-02
DAV:   2    -0.156985270989E+04   -0.39198E-04   -0.55395E-04 16848   0.281E-02    0.229E-02
DAV:   3    -0.156985270559E+04    0.43055E-05   -0.40176E-05  9762   0.104E-02    0.135E-02
DAV:   4    -0.156985270378E+04    0.18035E-05   -0.22807E-05  8032   0.104E-02    0.494E-03
DAV:   5    -0.156985270317E+04    0.61571E-06   -0.74955E-06  6400   0.634E-03
  32 F= -.15698527E+04 E0= -.15698506E+04  d E =-.200483E-03
       N       E                     dE             d eps       ncg     rms          rms(c)
DAV:   1    -0.156985262865E+04    0.75132E-04   -0.17085E-02 11380   0.172E-01    0.183E-02
DAV:   2    -0.156985262074E+04    0.79117E-05   -0.13429E-04 15712   0.148E-02    0.127E-02
DAV:   3    -0.156985261336E+04    0.73750E-05   -0.12275E-05  6784   0.656E-03    0.873E-03
DAV:   4    -0.156985260612E+04    0.72429E-05   -0.74357E-06  6176   0.633E-03    0.398E-03
DAV:   5    -0.156985260267E+04    0.34531E-05   -0.36131E-06  5936   0.394E-03
  33 F= -.15698526E+04 E0= -.15698504E+04  d E =0.100499E-03
       N       E                     dE             d eps       ncg     rms          rms(c)
DAV:   1    -0.156985268447E+04   -0.78354E-04   -0.12839E-02 11380   0.148E-01    0.133E-02
DAV:   2    -0.156985269122E+04   -0.67473E-05   -0.95418E-05 14704   0.122E-02    0.102E-02
DAV:   3    -0.156985269084E+04    0.38387E-06   -0.79621E-06  6074   0.526E-03    0.653E-03
DAV:   4    -0.156985269076E+04    0.77045E-07   -0.58983E-06  5976   0.502E-03    0.190E-03
DAV:   5    -0.156985269065E+04    0.11432E-06   -0.16405E-06  5936   0.278E-03
  34 F= -.15698527E+04 E0= -.15698505E+04  d E =-.879788E-04
       N       E                     dE             d eps       ncg     rms          rms(c)
DAV:   1    -0.156985281338E+04   -0.12262E-03   -0.48733E-02 11368   0.288E-01    0.256E-02
DAV:   2    -0.156985283496E+04   -0.21577E-04   -0.41074E-04 16840   0.243E-02    0.196E-02
DAV:   3    -0.156985282654E+04    0.84163E-05   -0.24183E-05  7874   0.876E-03    0.117E-02
DAV:   4    -0.156985282153E+04    0.50113E-05   -0.16903E-05  7440   0.917E-03    0.508E-03
DAV:   5    -0.156985281967E+04    0.18593E-05   -0.63559E-06  6232   0.603E-03
  35 F= -.15698528E+04 E0= -.15698507E+04  d E =-.129026E-03
       N       E                     dE             d eps       ncg     rms          rms(c)
DAV:   1    -0.156985275443E+04    0.67098E-04   -0.11922E-02 11380   0.144E-01    0.163E-02
DAV:   2    -0.156985276263E+04   -0.81971E-05   -0.94202E-05 14256   0.127E-02    0.110E-02
DAV:   3    -0.156985276408E+04   -0.14441E-05   -0.11769E-05  6612   0.650E-03    0.824E-03
DAV:   4    -0.156985276551E+04   -0.14373E-05   -0.62864E-06  5936   0.545E-03    0.407E-03
DAV:   5    -0.156985276831E+04   -0.27928E-05   -0.35355E-06  5918   0.348E-03
  36 F= -.15698528E+04 E0= -.15698507E+04  d E =0.513673E-04
       N       E                     dE             d eps       ncg     rms          rms(c)
DAV:   1    -0.156985284036E+04   -0.74844E-04   -0.13104E-02 11380   0.150E-01    0.140E-02
DAV:   2    -0.156985284034E+04    0.17864E-07   -0.97354E-05 14312   0.126E-02    0.104E-02
DAV:   3    -0.156985283690E+04    0.34430E-05   -0.90648E-06  6072   0.556E-03    0.710E-03
DAV:   4    -0.156985283274E+04    0.41611E-05   -0.56555E-06  5976   0.515E-03    0.259E-03
DAV:   5    -0.156985283163E+04    0.11019E-05   -0.23554E-06  5900   0.328E-03
  37 F= -.15698528E+04 E0= -.15698507E+04  d E =-.633274E-04
       N       E                     dE             d eps       ncg     rms          rms(c)
DAV:   1    -0.156985287163E+04   -0.38898E-04   -0.76932E-03 11380   0.114E-01    0.993E-03
DAV:   2    -0.156985287661E+04   -0.49753E-05   -0.61991E-05 11984   0.977E-03    0.774E-03
DAV:   3    -0.156985287679E+04   -0.17724E-06   -0.80039E-06  6010   0.493E-03    0.514E-03
DAV:   4    -0.156985287695E+04   -0.16168E-06   -0.40679E-06  5918   0.390E-03    0.146E-03
DAV:   5    -0.156985287700E+04   -0.49298E-07   -0.15268E-06  5900   0.245E-03
  38 F= -.15698529E+04 E0= -.15698508E+04  d E =-.453632E-04
       N       E                     dE             d eps       ncg     rms          rms(c)
DAV:   1    -0.156985290520E+04   -0.28249E-04   -0.31803E-03 11380   0.747E-02    0.916E-03
DAV:   2    -0.156985289753E+04    0.76669E-05   -0.22151E-05  6750   0.727E-03    0.550E-03
DAV:   3    -0.156985289488E+04    0.26455E-05   -0.84242E-06  5958   0.501E-03    0.386E-03
DAV:   4    -0.156985289238E+04    0.25025E-05   -0.40998E-06  5900   0.375E-03    0.215E-03
DAV:   5    -0.156985289057E+04    0.18097E-05   -0.25396E-06  5900   0.266E-03
  39 F= -.15698529E+04 E0= -.15698507E+04  d E =-.135748E-04
       N       E                     dE             d eps       ncg     rms          rms(c)
DAV:   1    -0.156985289240E+04   -0.18628E-07   -0.11854E-04 11276   0.178E-02    0.573E-03
DAV:   2    -0.156985289615E+04   -0.37542E-05   -0.38193E-06  5882   0.329E-03    0.274E-03
DAV:   3    -0.156985289790E+04   -0.17470E-05   -0.18035E-06  5882   0.312E-03    0.231E-03
DAV:   4    -0.156985289937E+04   -0.14731E-05   -0.75009E-07  5882   0.197E-03    0.975E-04
DAV:   5    -0.156985290091E+04   -0.15371E-05   -0.43778E-07  5882   0.104E-03
  40 F= -.15698529E+04 E0= -.15698508E+04  d E =-.103398E-04
       N       E                     dE             d eps       ncg     rms          rms(c)
DAV:   1    -0.156985291760E+04   -0.18226E-04   -0.15710E-03 11380   0.517E-02    0.466E-03
DAV:   2    -0.156985291785E+04   -0.24719E-06   -0.84651E-06  5890   0.444E-03    0.344E-03
DAV:   3    -0.156985291786E+04   -0.12063E-07   -0.31681E-06  5858   0.267E-03    0.221E-03
DAV:   4    -0.156985291771E+04    0.15299E-06   -0.18846E-06  5882   0.235E-03    0.621E-04
DAV:   5    -0.156985291776E+04   -0.56777E-07   -0.96914E-07  5858   0.164E-03
  41 F= -.15698529E+04 E0= -.15698508E+04  d E =-.168517E-04
       N       E                     dE             d eps       ncg     rms          rms(c)
DAV:   1    -0.156985297686E+04   -0.59156E-04   -0.56550E-02 11368   0.310E-01    0.274E-02
DAV:   2    -0.156985300647E+04   -0.29604E-04   -0.47662E-04 16816   0.261E-02    0.211E-02
DAV:   3    -0.156985299875E+04    0.77202E-05   -0.33242E-05  9016   0.959E-03    0.115E-02
DAV:   4    -0.156985299515E+04    0.35905E-05   -0.18639E-05  7744   0.965E-03    0.460E-03
DAV:   5    -0.156985299399E+04    0.11647E-05   -0.59175E-06  6312   0.590E-03
  42 F= -.15698530E+04 E0= -.15698509E+04  d E =-.762275E-04
       N       E                     dE             d eps       ncg     rms          rms(c)
DAV:   1    -0.156985301028E+04   -0.15124E-04   -0.11378E-02 11368   0.139E-01    0.119E-02
DAV:   2    -0.156985301550E+04   -0.52177E-05   -0.10180E-04 15216   0.119E-02    0.924E-03
DAV:   3    -0.156985301355E+04    0.19443E-05   -0.65004E-06  6258   0.451E-03    0.597E-03
DAV:   4    -0.156985301193E+04    0.16241E-05   -0.42613E-06  6056   0.435E-03    0.258E-03
DAV:   5    -0.156985301126E+04    0.67192E-06   -0.17573E-06  5984   0.316E-03
  43 F= -.15698530E+04 E0= -.15698509E+04  d E =-.172660E-04
       N       E                     dE             d eps       ncg     rms          rms(c)
DAV:   1    -0.156985300952E+04    0.24104E-05   -0.33207E-05  8368   0.833E-03    0.183E-03
DAV:   2    -0.156985301105E+04   -0.15315E-05   -0.13951E-06  5900   0.218E-03    0.108E-03
DAV:   3    -0.156985301149E+04   -0.43769E-06   -0.31138E-07  5900   0.117E-03    0.877E-04
DAV:   4    -0.156985301236E+04   -0.87187E-06   -0.15986E-07  5900   0.834E-04    0.360E-04
DAV:   5    -0.156985301275E+04   -0.39322E-06   -0.83242E-08  5888   0.503E-04
  44 F= -.15698530E+04 E0= -.15698509E+04  d E =-.149583E-05
       N       E                     dE             d eps       ncg     rms          rms(c)
DAV:   1    -0.156985301637E+04   -0.40083E-05   -0.27451E-04 11326   0.217E-02    0.209E-03
DAV:   2    -0.156985301558E+04    0.78352E-06   -0.15320E-06  5846   0.191E-03    0.145E-03
DAV:   3    -0.156985301513E+04    0.45575E-06   -0.55721E-07  5834   0.113E-03    0.859E-04
DAV:   4    -0.156985301474E+04    0.38322E-06   -0.29346E-07  5828   0.950E-04    0.410E-04
DAV:   5    -0.156985301460E+04    0.14130E-06   -0.16929E-07  5822   0.699E-04
  45 F= -.15698530E+04 E0= -.15698509E+04  d E =-.185131E-05
       N       E                     dE             d eps       ncg     rms          rms(c)
DAV:   1    -0.156985301632E+04   -0.15798E-05   -0.26421E-04 11288   0.212E-02    0.197E-03
DAV:   2    -0.156985301684E+04   -0.51773E-06   -0.16583E-06  5810   0.196E-03    0.144E-03
DAV:   3    -0.156985301711E+04   -0.26956E-06   -0.64626E-07  5798   0.121E-03    0.871E-04
DAV:   4    -0.156985301740E+04   -0.29292E-06   -0.36443E-07  5810   0.102E-03    0.300E-04
DAV:   5    -0.156985301745E+04   -0.42395E-07   -0.20221E-07  5804   0.752E-04
  46 F= -.15698530E+04 E0= -.15698509E+04  d E =-.284372E-05
       N       E                     dE             d eps       ncg     rms          rms(c)
DAV:   1    -0.156985301884E+04   -0.14343E-05   -0.99518E-06  5828   0.471E-03    0.102E-03
DAV:   2    -0.156985301790E+04    0.94187E-06   -0.68478E-07  5828   0.161E-03    0.498E-04
DAV:   3    -0.156985301746E+04    0.43265E-06   -0.17463E-07  5828   0.727E-04    0.472E-04
DAV:   4    -0.156985301710E+04    0.36200E-06   -0.91987E-08  5828   0.624E-04    0.212E-04
DAV:   5    -0.156985301680E+04    0.30609E-06   -0.54765E-08  5828   0.342E-04
  47 F= -.15698530E+04 E0= -.15698509E+04  d E =0.650748E-06
       N       E                     dE             d eps       ncg     rms          rms(c)
DAV:   1    -0.156985301770E+04   -0.59346E-06   -0.10690E-04 11080   0.135E-02    0.129E-03
DAV:   2    -0.156985301810E+04   -0.40110E-06   -0.75273E-07  5810   0.128E-03    0.914E-04
DAV:   3    -0.156985301832E+04   -0.22316E-06   -0.27082E-07  5804   0.750E-04    0.590E-04
DAV:   4    -0.156985301857E+04   -0.24592E-06   -0.14792E-07  5792   0.608E-04    0.177E-04
DAV:   5    -0.156985301860E+04   -0.29641E-07   -0.78726E-08  5792   0.419E-04
  48 F= -.15698530E+04 E0= -.15698509E+04  d E =-.179936E-05
       N       E                     dE             d eps       ncg     rms          rms(c)
DAV:   1    -0.156985302098E+04   -0.24174E-05   -0.37187E-04 11332   0.251E-02    0.228E-03
DAV:   2    -0.156985302070E+04    0.28201E-06   -0.21156E-06  5756   0.222E-03    0.166E-03
DAV:   3    -0.156985302044E+04    0.25835E-06   -0.81537E-07  5750   0.130E-03    0.762E-04
DAV:   4    -0.156985302028E+04    0.16162E-06   -0.42955E-07  5756   0.109E-03    0.366E-04
DAV:   5    -0.156985302028E+04   -0.35911E-08   -0.23687E-07  5756   0.825E-04
  49 F= -.15698530E+04 E0= -.15698509E+04  d E =-.168933E-05
       N       E                     dE             d eps       ncg     rms          rms(c)
DAV:   1    -0.156985301903E+04    0.12475E-05   -0.73637E-06  5756   0.457E-03    0.123E-03
DAV:   2    -0.156985302024E+04   -0.12042E-05   -0.46463E-07  5756   0.158E-03    0.609E-04
DAV:   3    -0.156985302081E+04   -0.57135E-06   -0.92037E-08  5756   0.619E-04    0.532E-04
DAV:   4    -0.156985302125E+04   -0.43684E-06   -0.53047E-08  5756   0.529E-04    0.246E-04
DAV:   5    -0.156985302164E+04   -0.39103E-06   -0.33242E-08  5756   0.272E-04
  50 F= -.15698530E+04 E0= -.15698509E+04  d E =-.135227E-05
       N       E                     dE             d eps       ncg     rms          rms(c)
DAV:   1    -0.156985302351E+04   -0.22671E-05   -0.10361E-04 11056   0.133E-02    0.138E-03
DAV:   2    -0.156985302287E+04    0.64317E-06   -0.72854E-07  5756   0.130E-03    0.922E-04
DAV:   3    -0.156985302260E+04    0.26882E-06   -0.25082E-07  5756   0.787E-04    0.657E-04
DAV:   4    -0.156985302228E+04    0.32363E-06   -0.12951E-07  5756   0.609E-04    0.308E-04
DAV:   5    -0.156985302210E+04    0.17446E-06   -0.74547E-08  5756   0.425E-04
  51 F= -.15698530E+04 E0= -.15698509E+04  d E =-.466009E-06
       N       E                     dE             d eps       ncg     rms          rms(c)
DAV:   1    -0.156985302320E+04   -0.92108E-06   -0.15752E-04 11148   0.163E-02    0.149E-03
DAV:   2    -0.156985302334E+04   -0.13819E-06   -0.10037E-06  5756   0.153E-03    0.109E-03
DAV:   3    -0.156985302341E+04   -0.72680E-07   -0.37222E-07  5750   0.925E-04    0.640E-04
DAV:   4    -0.156985302348E+04   -0.70958E-07   -0.21089E-07  5756   0.787E-04    0.187E-04
DAV:   5    -0.156985302348E+04   -0.72532E-09   -0.11103E-07  5756   0.545E-04
  52 F= -.15698530E+04 E0= -.15698509E+04  d E =-.137810E-05
       N       E                     dE             d eps       ncg     rms          rms(c)
DAV:   1    -0.156985302678E+04   -0.33043E-05   -0.82826E-04 11380   0.376E-02    0.363E-03
DAV:   2    -0.156985302551E+04    0.12715E-05   -0.47230E-06  5756   0.334E-03    0.252E-03
DAV:   3    -0.156985302468E+04    0.83119E-06   -0.17642E-06  5744   0.197E-03    0.132E-03
DAV:   4    -0.156985302412E+04    0.55959E-06   -0.93231E-07  5756   0.163E-03    0.775E-04
DAV:   5    -0.156985302394E+04    0.18351E-06   -0.53183E-07  5744   0.127E-03
  53 F= -.15698530E+04 E0= -.15698509E+04  d E =-.457737E-06
