       N       E                     dE             d eps       ncg     rms          rms(c)
DAV:   1     0.219445545924E+04    0.21945E+04   -0.29004E+05 11620   0.143E+03
DAV:   2    -0.119484808558E+04   -0.33893E+04   -0.32522E+04 13462   0.295E+02
DAV:   3    -0.162568463071E+04   -0.43084E+03   -0.39756E+03 18000   0.819E+01
DAV:   4    -0.165032069172E+04   -0.24636E+02   -0.22981E+02 16320   0.172E+01
DAV:   5    -0.165139168861E+04   -0.10710E+01   -0.10514E+01 17808   0.418E+00    0.414E+01
DAV:   6    -0.161398674532E+04    0.37405E+02   -0.16651E+02 18776   0.192E+01    0.247E+01
DAV:   7    -0.159654441988E+04    0.17442E+02   -0.12164E+02 19464   0.187E+01    0.186E+01
DAV:   8    -0.158617956728E+04    0.10365E+02   -0.79972E+01 16760   0.118E+01    0.103E+01
DAV:   9    -0.158064765613E+04    0.55319E+01   -0.25538E+01 16592   0.819E+00    0.338E+00
DAV:  10    -0.158046417003E+04    0.18349E+00   -0.51271E+00 16552   0.351E+00    0.185E+00
DAV:  11    -0.158044493129E+04    0.19239E-01   -0.11220E+00 15968   0.154E+00    0.131E+00
DAV:  12    -0.158041487409E+04    0.30057E-01   -0.25341E-01 14624   0.743E-01    0.683E-01
DAV:  13    -0.158040599313E+04    0.88810E-02   -0.81735E-02 16192   0.468E-01    0.377E-01
DAV:  14    -0.158039983644E+04    0.61567E-02   -0.28919E-02 17344   0.298E-01    0.189E-01
DAV:  15    -0.158039874596E+04    0.10905E-02   -0.10647E-02 16592   0.144E-01    0.721E-02
DAV:  16    -0.158039878607E+04   -0.40112E-04   -0.19569E-03 14792   0.666E-02    0.446E-02
DAV:  17    -0.158039877009E+04    0.15983E-04   -0.48795E-04 16488   0.351E-02    0.268E-02
DAV:  18    -0.158039874542E+04    0.24662E-04   -0.16711E-04 15624   0.219E-02    0.153E-02
DAV:  19    -0.158039873544E+04    0.99860E-05   -0.58908E-05 11952   0.121E-02
   1 F= -.15803987E+04 E0= -.15804056E+04  d E =-.158040E+04
       N       E                     dE             d eps       ncg     rms          rms(c)
DAV:   1    -0.158495518914E+04   -0.45564E+01   -0.15216E+03 11620   0.591E+01    0.213E+01
DAV:   2    -0.156921992546E+04    0.15735E+02   -0.98060E+01 18136   0.140E+01    0.133E+01
DAV:   3    -0.156319818916E+04    0.60217E+01   -0.57021E+01 19344   0.117E+01    0.966E+00
DAV:   4    -0.155907715847E+04    0.41210E+01   -0.22707E+01 20408   0.688E+00    0.622E+00
DAV:   5    -0.155752681090E+04    0.15503E+01   -0.13028E+01 17104   0.455E+00    0.250E+00
DAV:   6    -0.155732870710E+04    0.19810E+00   -0.25026E+00 16960   0.234E+00    0.154E+00
DAV:   7    -0.155728572706E+04    0.42980E-01   -0.47581E-01 15944   0.107E+00    0.106E+00
DAV:   8    -0.155727194164E+04    0.13785E-01   -0.15758E-01 17424   0.472E-01    0.557E-01
DAV:   9    -0.155727660579E+04   -0.46641E-02   -0.97243E-02 17792   0.323E-01    0.314E-01
DAV:  10    -0.155727696730E+04   -0.36151E-03   -0.20963E-02 17224   0.224E-01    0.236E-01
DAV:  11    -0.155727498829E+04    0.19790E-02   -0.85528E-03 19192   0.133E-01    0.117E-01
DAV:  12    -0.155727483181E+04    0.15648E-03   -0.45163E-03 18360   0.778E-02    0.569E-02
DAV:  13    -0.155727509563E+04   -0.26382E-03   -0.95243E-04 16512   0.393E-02    0.310E-02
DAV:  14    -0.155727512443E+04   -0.28800E-04   -0.26374E-04 16224   0.256E-02    0.231E-02
DAV:  15    -0.155727510950E+04    0.14924E-04   -0.87314E-05 14000   0.148E-02    0.133E-02
DAV:  16    -0.155727510921E+04    0.29382E-06   -0.44667E-05  9440   0.987E-03
   2 F= -.15572751E+04 E0= -.15572807E+04  d E =0.231236E+02
       N       E                     dE             d eps       ncg     rms          rms(c)
DAV:   1    -0.159930779888E+04   -0.42033E+02   -0.71912E+02 11620   0.447E+01    0.150E+01
DAV:   2    -0.159006731975E+04    0.92405E+01   -0.27628E+01 16864   0.868E+00    0.746E+00
DAV:   3    -0.158850526928E+04    0.15621E+01   -0.16695E+01 18384   0.668E+00    0.611E+00
DAV:   4    -0.158658789728E+04    0.19174E+01   -0.75245E+00 17928   0.449E+00    0.308E+00
DAV:   5    -0.158617320762E+04    0.41469E+00   -0.34906E+00 16040   0.280E+00    0.114E+00
DAV:   6    -0.158614168328E+04    0.31524E-01   -0.63860E-01 15616   0.133E+00    0.724E-01
DAV:   7    -0.158614013643E+04    0.15468E-02   -0.12099E-01 14984   0.534E-01    0.515E-01
DAV:   8    -0.158614367742E+04   -0.35410E-02   -0.38211E-02 15568   0.250E-01    0.245E-01
DAV:   9    -0.158615207291E+04   -0.83955E-02   -0.26239E-02 16328   0.199E-01    0.208E-01
DAV:  10    -0.158615114368E+04    0.92923E-03   -0.53899E-03 16528   0.134E-01    0.136E-01
DAV:  11    -0.158615053487E+04    0.60881E-03   -0.40141E-03 16872   0.817E-02    0.458E-02
DAV:  12    -0.158615082839E+04   -0.29352E-03   -0.11330E-03 17016   0.438E-02    0.438E-02
DAV:  13    -0.158615092980E+04   -0.10141E-03   -0.25856E-04 15632   0.238E-02    0.219E-02
DAV:  14    -0.158615092670E+04    0.31068E-05   -0.86946E-05 13312   0.141E-02
   3 F= -.15861509E+04 E0= -.15861403E+04  d E =-.288758E+02
       N       E                     dE             d eps       ncg     rms          rms(c)
DAV:   1    -0.158631347887E+04   -0.16255E+00   -0.18866E+01 11620   0.570E+00    0.722E-01
DAV:   2    -0.158633453326E+04   -0.21054E-01   -0.31426E-01 17096   0.887E-01    0.639E-01
DAV:   3    -0.158631393056E+04    0.20603E-01   -0.97701E-02 17968   0.534E-01    0.375E-01
DAV:   4    -0.158631065574E+04    0.32748E-02   -0.20895E-02 16616   0.214E-01    0.228E-01
DAV:   5    -0.158630931604E+04    0.13397E-02   -0.10872E-02 15768   0.167E-01    0.106E-01
DAV:   6    -0.158630902200E+04    0.29404E-03   -0.37880E-03 16144   0.107E-01    0.599E-02
DAV:   7    -0.158630891900E+04    0.10300E-03   -0.10374E-03 15784   0.522E-02    0.357E-02
DAV:   8    -0.158630889244E+04    0.26558E-04   -0.24617E-04 15904   0.230E-02    0.208E-02
DAV:   9    -0.158630889012E+04    0.23171E-05   -0.84659E-05 14000   0.150E-02
   4 F= -.15863089E+04 E0= -.15862986E+04  d E =-.157963E+00
       N       E                     dE             d eps       ncg     rms          rms(c)
DAV:   1    -0.158634853498E+04   -0.39643E-01   -0.46541E+00 11620   0.283E+00    0.416E-01
DAV:   2    -0.158635944658E+04   -0.10912E-01   -0.11306E-01 17600   0.609E-01    0.456E-01
DAV:   3    -0.158634433572E+04    0.15111E-01   -0.51726E-02 17608   0.395E-01    0.193E-01
DAV:   4    -0.158634339575E+04    0.93997E-03   -0.68267E-03 16392   0.120E-01    0.130E-01
DAV:   5    -0.158634290872E+04    0.48703E-03   -0.31817E-03 16088   0.920E-02    0.737E-02
DAV:   6    -0.158634270632E+04    0.20240E-03   -0.15142E-03 15760   0.667E-02    0.395E-02
DAV:   7    -0.158634265090E+04    0.55418E-04   -0.41760E-04 15200   0.329E-02    0.225E-02
DAV:   8    -0.158634265230E+04   -0.14022E-05   -0.95480E-05 13656   0.140E-02
   5 F= -.15863427E+04 E0= -.15863320E+04  d E =-.337622E-01
       N       E                     dE             d eps       ncg     rms          rms(c)
DAV:   1    -0.158635494805E+04   -0.12297E-01   -0.74698E-01 11753   0.123E+00    0.273E-01
DAV:   2    -0.158635257827E+04    0.23698E-02   -0.12293E-02 16216   0.164E-01    0.150E-01
DAV:   3    -0.158635221395E+04    0.36432E-03   -0.55436E-03 18513   0.122E-01    0.119E-01
DAV:   4    -0.158635154151E+04    0.67245E-03   -0.24551E-03 16832   0.815E-02    0.561E-02
DAV:   5    -0.158635150287E+04    0.38637E-04   -0.10868E-03 15392   0.514E-02    0.237E-02
DAV:   6    -0.158635149583E+04    0.70413E-05   -0.19746E-04 15064   0.241E-02    0.161E-02
DAV:   7    -0.158635149044E+04    0.53864E-05   -0.36513E-05  8248   0.105E-02
   6 F= -.15863515E+04 E0= -.15863411E+04  d E =-.883814E-02
       N       E                     dE             d eps       ncg     rms          rms(c)
DAV:   1    -0.158636322399E+04   -0.11728E-01   -0.74400E-01 11676   0.115E+00    0.207E-01
DAV:   2    -0.158636465918E+04   -0.14352E-02   -0.20984E-02 17848   0.267E-01    0.209E-01
DAV:   3    -0.158636152546E+04    0.31337E-02   -0.10892E-02 17968   0.181E-01    0.913E-02
DAV:   4    -0.158636122077E+04    0.30469E-03   -0.15382E-03 15888   0.580E-02    0.563E-02
DAV:   5    -0.158636108758E+04    0.13319E-03   -0.71221E-04 16072   0.449E-02    0.319E-02
DAV:   6    -0.158636102791E+04    0.59672E-04   -0.30447E-04 15936   0.306E-02    0.163E-02
DAV:   7    -0.158636101904E+04    0.88663E-05   -0.76225E-05 13416   0.141E-02
   7 F= -.15863610E+04 E0= -.15863504E+04  d E =-.952860E-02
       N       E                     dE             d eps       ncg     rms          rms(c)
DAV:   1    -0.158636505064E+04   -0.40227E-02   -0.46223E-01 11718   0.883E-01    0.104E-01
DAV:   2    -0.158636606534E+04   -0.10147E-02   -0.75981E-03 17048   0.157E-01    0.123E-01
DAV:   3    -0.158636505283E+04    0.10125E-02   -0.31811E-03 17592   0.990E-02    0.557E-02
DAV:   4    -0.158636502119E+04    0.31640E-04   -0.51024E-04 16568   0.329E-02    0.322E-02
DAV:   5    -0.158636500396E+04    0.17231E-04   -0.23846E-04 15824   0.262E-02    0.141E-02
DAV:   6    -0.158636499934E+04    0.46195E-05   -0.75781E-05 13512   0.152E-02
   8 F= -.15863650E+04 E0= -.15863544E+04  d E =-.398030E-02
       N       E                     dE             d eps       ncg     rms          rms(c)
DAV:   1    -0.158636682707E+04   -0.18231E-02   -0.13652E-01 11767   0.498E-01    0.931E-02
DAV:   2    -0.158636692730E+04   -0.10023E-03   -0.34889E-03 17928   0.107E-01    0.858E-02
DAV:   3    -0.158636642606E+04    0.50124E-03   -0.18571E-03 18321   0.744E-02    0.414E-02
DAV:   4    -0.158636634088E+04    0.85180E-04   -0.30113E-04 15880   0.256E-02    0.240E-02
DAV:   5    -0.158636630332E+04    0.37562E-04   -0.13680E-04 15400   0.200E-02    0.136E-02
DAV:   6    -0.158636628642E+04    0.16898E-04   -0.49776E-05 11248   0.134E-02    0.638E-03
DAV:   7    -0.158636628560E+04    0.82285E-06   -0.12523E-05  6656   0.654E-03
   9 F= -.15863663E+04 E0= -.15863556E+04  d E =-.128626E-02
       N       E                     dE             d eps       ncg     rms          rms(c)
DAV:   1    -0.158636751771E+04   -0.12313E-02   -0.71065E-02 11760   0.358E-01    0.588E-02
DAV:   2    -0.158636752895E+04   -0.11237E-04   -0.95213E-04 16400   0.490E-02    0.417E-02
DAV:   3    -0.158636747439E+04    0.54561E-04   -0.38351E-04 18017   0.335E-02    0.286E-02
DAV:   4    -0.158636746463E+04    0.97549E-05   -0.10775E-04 14408   0.162E-02    0.130E-02
DAV:   5    -0.158636747489E+04   -0.10255E-04   -0.40591E-05  9528   0.117E-02    0.638E-03
DAV:   6    -0.158636747541E+04   -0.52846E-06   -0.11601E-05  6952   0.776E-03
  10 F= -.15863675E+04 E0= -.15863569E+04  d E =-.118982E-02
       N       E                     dE             d eps       ncg     rms          rms(c)
DAV:   1    -0.158636839107E+04   -0.91618E-03   -0.87178E-02 11732   0.383E-01    0.462E-02
DAV:   2    -0.158636852990E+04   -0.13883E-03   -0.13844E-03 17816   0.645E-02    0.513E-02
DAV:   3    -0.158636835736E+04    0.17254E-03   -0.58706E-04 18136   0.420E-02    0.247E-02
DAV:   4    -0.158636833743E+04    0.19930E-04   -0.75595E-05 13224   0.132E-02    0.149E-02
DAV:   5    -0.158636832545E+04    0.11975E-04   -0.31888E-05  8712   0.116E-02    0.691E-03
DAV:   6    -0.158636832166E+04    0.37992E-05   -0.11612E-05  7008   0.814E-03
  11 F= -.15863683E+04 E0= -.15863577E+04  d E =-.846240E-03
       N       E                     dE             d eps       ncg     rms          rms(c)
DAV:   1    -0.158636887770E+04   -0.55224E-03   -0.64117E-02 11760   0.330E-01    0.372E-02
DAV:   2    -0.158636893953E+04   -0.61829E-04   -0.68390E-04 17176   0.394E-02    0.319E-02
DAV:   3    -0.158636890383E+04    0.35697E-04   -0.18552E-04 16978   0.240E-02    0.212E-02
DAV:   4    -0.158636890494E+04   -0.11112E-05   -0.46812E-05 10584   0.105E-02    0.854E-03
DAV:   5    -0.158636890916E+04   -0.42248E-05   -0.15026E-05  7384   0.834E-03
  12 F= -.15863689E+04 E0= -.15863583E+04  d E =-.587509E-03
       N       E                     dE             d eps       ncg     rms          rms(c)
DAV:   1    -0.158636919578E+04   -0.29084E-03   -0.10414E-02 11788   0.140E-01    0.281E-02
DAV:   2    -0.158636916168E+04    0.34096E-04   -0.20524E-04 17616   0.233E-02    0.193E-02
DAV:   3    -0.158636913956E+04    0.22121E-04   -0.89886E-05 14296   0.171E-02    0.124E-02
DAV:   4    -0.158636912359E+04    0.15976E-04   -0.21065E-05  7464   0.820E-03    0.642E-03
DAV:   5    -0.158636911443E+04    0.91547E-05   -0.99436E-06  6320   0.601E-03
  13 F= -.15863691E+04 E0= -.15863585E+04  d E =-.205267E-03
       N       E                     dE             d eps       ncg     rms          rms(c)
DAV:   1    -0.158636946995E+04   -0.34637E-03   -0.34682E-02 11746   0.241E-01    0.245E-02
DAV:   2    -0.158636950094E+04   -0.30989E-04   -0.32869E-04 17096   0.258E-02    0.211E-02
DAV:   3    -0.158636948780E+04    0.13142E-04   -0.57483E-05 11657   0.145E-02    0.151E-02
DAV:   4    -0.158636948923E+04   -0.14305E-05   -0.26907E-05  6960   0.831E-03    0.408E-03
DAV:   5    -0.158636949032E+04   -0.10955E-05   -0.74373E-06  6496   0.625E-03
  14 F= -.15863695E+04 E0= -.15863589E+04  d E =-.375893E-03
       N       E                     dE             d eps       ncg     rms          rms(c)
DAV:   1    -0.158636984296E+04   -0.35373E-03   -0.43608E-02 11732   0.270E-01    0.279E-02
DAV:   2    -0.158636986485E+04   -0.21894E-04   -0.44282E-04 17240   0.309E-02    0.245E-02
DAV:   3    -0.158636984046E+04    0.24385E-04   -0.10611E-04 15089   0.189E-02    0.166E-02
DAV:   4    -0.158636982787E+04    0.12598E-04   -0.24995E-05  7456   0.797E-03    0.785E-03
DAV:   5    -0.158636982271E+04    0.51530E-05   -0.10894E-05  6752   0.702E-03
  15 F= -.15863698E+04 E0= -.15863592E+04  d E =-.332389E-03
       N       E                     dE             d eps       ncg     rms          rms(c)
DAV:   1    -0.158636990069E+04   -0.72819E-04   -0.28708E-03 11788   0.748E-02    0.156E-02
DAV:   2    -0.158636990553E+04   -0.48444E-05   -0.31223E-05  7664   0.948E-03    0.817E-03
DAV:   3    -0.158636990976E+04   -0.42328E-05   -0.13027E-05  6946   0.778E-03    0.612E-03
DAV:   4    -0.158636991350E+04   -0.37364E-05   -0.65330E-06  6208   0.565E-03    0.260E-03
DAV:   5    -0.158636991677E+04   -0.32732E-05   -0.36608E-06  6104   0.337E-03
  16 F= -.15863699E+04 E0= -.15863593E+04  d E =-.940589E-04
       N       E                     dE             d eps       ncg     rms          rms(c)
DAV:   1    -0.158637013667E+04   -0.22317E-03   -0.19458E-02 11746   0.181E-01    0.189E-02
DAV:   2    -0.158637013960E+04   -0.29258E-05   -0.18649E-04 16824   0.180E-02    0.146E-02
DAV:   3    -0.158637013307E+04    0.65272E-05   -0.21140E-05  8225   0.961E-03    0.112E-02
DAV:   4    -0.158637012591E+04    0.71636E-05   -0.13212E-05  6344   0.642E-03    0.496E-03
DAV:   5    -0.158637012303E+04    0.28810E-05   -0.59604E-06  6104   0.512E-03
  17 F= -.15863701E+04 E0= -.15863595E+04  d E =-.206254E-03
       N       E                     dE             d eps       ncg     rms          rms(c)
DAV:   1    -0.158637031177E+04   -0.18586E-03   -0.21193E-02 11746   0.188E-01    0.174E-02
DAV:   2    -0.158637032754E+04   -0.15774E-04   -0.18120E-04 16680   0.173E-02    0.137E-02
DAV:   3    -0.158637032590E+04    0.16439E-05   -0.12880E-05  7544   0.742E-03    0.108E-02
DAV:   4    -0.158637032701E+04   -0.11112E-05   -0.13036E-05  6392   0.621E-03    0.233E-03
DAV:   5    -0.158637032737E+04   -0.36307E-06   -0.32925E-06  6104   0.423E-03
  18 F= -.15863703E+04 E0= -.15863597E+04  d E =-.204346E-03
       N       E                     dE             d eps       ncg     rms          rms(c)
DAV:   1    -0.158637046389E+04   -0.13688E-03   -0.10966E-02 11760   0.137E-01    0.161E-02
DAV:   2    -0.158637045643E+04    0.74563E-05   -0.10909E-04 15536   0.144E-02    0.113E-02
DAV:   3    -0.158637045099E+04    0.54405E-05   -0.17146E-05  7833   0.864E-03    0.850E-03
DAV:   4    -0.158637044434E+04    0.66544E-05   -0.83304E-06  6104   0.562E-03    0.432E-03
DAV:   5    -0.158637044022E+04    0.41196E-05   -0.44068E-06  6104   0.405E-03
  19 F= -.15863704E+04 E0= -.15863598E+04  d E =-.112846E-03
       N       E                     dE             d eps       ncg     rms          rms(c)
DAV:   1    -0.158637052042E+04   -0.76077E-04   -0.44907E-03 11760   0.880E-02    0.114E-02
DAV:   2    -0.158637052641E+04   -0.59905E-05   -0.30376E-05  8416   0.855E-03    0.720E-03
DAV:   3    -0.158637052937E+04   -0.29679E-05   -0.10395E-05  6410   0.584E-03    0.518E-03
DAV:   4    -0.158637053250E+04   -0.31239E-05   -0.56489E-06  6104   0.467E-03    0.206E-03
DAV:   5    -0.158637053433E+04   -0.18332E-05   -0.30799E-06  6104   0.308E-03
  20 F= -.15863705E+04 E0= -.15863599E+04  d E =-.941123E-04
       N       E                     dE             d eps       ncg     rms          rms(c)
DAV:   1    -0.158637065641E+04   -0.12391E-03   -0.11652E-02 11746   0.139E-01    0.138E-02
DAV:   2    -0.158637065868E+04   -0.22708E-05   -0.10900E-04 15840   0.130E-02    0.104E-02
DAV:   3    -0.158637065613E+04    0.25528E-05   -0.83042E-06  6825   0.576E-03    0.795E-03
DAV:   4    -0.158637065181E+04    0.43210E-05   -0.61039E-06  6104   0.488E-03    0.272E-03
DAV:   5    -0.158637065070E+04    0.11035E-05   -0.24517E-06  6104   0.337E-03
  21 F= -.15863707E+04 E0= -.15863601E+04  d E =-.116374E-03
       N       E                     dE             d eps       ncg     rms          rms(c)
DAV:   1    -0.158637072276E+04   -0.70956E-04   -0.54257E-03 11746   0.955E-02    0.954E-03
DAV:   2    -0.158637072820E+04   -0.54347E-05   -0.34655E-05  9080   0.869E-03    0.672E-03
DAV:   3    -0.158637073013E+04   -0.19318E-05   -0.95852E-06  6193   0.515E-03    0.473E-03
DAV:   4    -0.158637073257E+04   -0.24356E-05   -0.52540E-06  6104   0.421E-03    0.148E-03
DAV:   5    -0.158637073341E+04   -0.84872E-06   -0.26585E-06  6104   0.284E-03
  22 F= -.15863707E+04 E0= -.15863601E+04  d E =-.827100E-04
       N       E                     dE             d eps       ncg     rms          rms(c)
DAV:   1    -0.158637081699E+04   -0.84424E-04   -0.65074E-03 11760   0.105E-01    0.116E-02
DAV:   2    -0.158637081310E+04    0.38886E-05   -0.61362E-05 12424   0.103E-02    0.816E-03
DAV:   3    -0.158637081065E+04    0.24516E-05   -0.96219E-06  6624   0.590E-03    0.611E-03
DAV:   4    -0.158637080663E+04    0.40237E-05   -0.41113E-06  6104   0.419E-03    0.282E-03
DAV:   5    -0.158637080452E+04    0.21080E-05   -0.22573E-06  6104   0.291E-03
  23 F= -.15863708E+04 E0= -.15863602E+04  d E =-.711034E-04
       N       E                     dE             d eps       ncg     rms          rms(c)
DAV:   1    -0.158637085496E+04   -0.48338E-04   -0.31930E-03 11760   0.734E-02    0.789E-03
DAV:   2    -0.158637085912E+04   -0.41550E-05   -0.19198E-05  7000   0.679E-03    0.541E-03
DAV:   3    -0.158637086081E+04   -0.16942E-05   -0.69935E-06  6104   0.430E-03    0.388E-03
DAV:   4    -0.158637086312E+04   -0.23107E-05   -0.40825E-06  6104   0.352E-03    0.128E-03
DAV:   5    -0.158637086390E+04   -0.77942E-06   -0.21553E-06  6104   0.247E-03
  24 F= -.15863709E+04 E0= -.15863603E+04  d E =-.593852E-04
       N       E                     dE             d eps       ncg     rms          rms(c)
DAV:   1    -0.158637094116E+04   -0.78033E-04   -0.77076E-03 11746   0.113E-01    0.112E-02
DAV:   2    -0.158637094140E+04   -0.24128E-06   -0.70217E-05 13568   0.105E-02    0.838E-03
DAV:   3    -0.158637093918E+04    0.22167E-05   -0.76142E-06  6449   0.500E-03    0.570E-03
DAV:   4    -0.158637093632E+04    0.28627E-05   -0.38500E-06  6104   0.420E-03    0.218E-03
DAV:   5    -0.158637093544E+04    0.88218E-06   -0.17604E-06  6104   0.286E-03
  25 F= -.15863709E+04 E0= -.15863603E+04  d E =-.715333E-04
       N       E                     dE             d eps       ncg     rms          rms(c)
DAV:   1    -0.158637096240E+04   -0.26083E-04   -0.13012E-03 11760   0.472E-02    0.584E-03
DAV:   2    -0.158637096607E+04   -0.36665E-05   -0.89677E-06  6120   0.472E-03    0.371E-03
DAV:   3    -0.158637096742E+04   -0.13512E-05   -0.33957E-06  6104   0.325E-03    0.277E-03
DAV:   4    -0.158637096939E+04   -0.19756E-05   -0.18741E-06  6104   0.246E-03    0.114E-03
DAV:   5    -0.158637097039E+04   -0.99399E-06   -0.10489E-06  6104   0.174E-03
  26 F= -.15863710E+04 E0= -.15863604E+04  d E =-.349521E-04
       N       E                     dE             d eps       ncg     rms          rms(c)
DAV:   1    -0.158637102826E+04   -0.58864E-04   -0.50942E-03 11718   0.922E-02    0.919E-03
DAV:   2    -0.158637102655E+04    0.17119E-05   -0.33276E-05  9208   0.841E-03    0.656E-03
DAV:   3    -0.158637102487E+04    0.16746E-05   -0.94486E-06  6155   0.484E-03    0.385E-03
DAV:   4    -0.158637102323E+04    0.16422E-05   -0.47681E-06  6104   0.401E-03    0.157E-03
DAV:   5    -0.158637102296E+04    0.26516E-06   -0.25824E-06  6083   0.288E-03
  27 F= -.15863710E+04 E0= -.15863604E+04  d E =-.525757E-04
       N       E                     dE             d eps       ncg     rms          rms(c)
DAV:   1    -0.158637106582E+04   -0.42588E-04   -0.44089E-03 11718   0.859E-02    0.894E-03
DAV:   2    -0.158637107048E+04   -0.46656E-05   -0.29098E-05  8312   0.813E-03    0.623E-03
DAV:   3    -0.158637107240E+04   -0.19212E-05   -0.98056E-06  6201   0.505E-03    0.424E-03
DAV:   4    -0.158637107455E+04   -0.21489E-05   -0.52961E-06  6104   0.407E-03    0.157E-03
DAV:   5    -0.158637107543E+04   -0.87522E-06   -0.28860E-06  6104   0.292E-03
  28 F= -.15863711E+04 E0= -.15863605E+04  d E =-.524637E-04
       N       E                     dE             d eps       ncg     rms          rms(c)
DAV:   1    -0.158637110305E+04   -0.28499E-04   -0.10461E-03 11760   0.425E-02    0.623E-03
DAV:   2    -0.158637109811E+04    0.49375E-05   -0.94926E-06  6041   0.490E-03    0.368E-03
DAV:   3    -0.158637109654E+04    0.15716E-05   -0.40749E-06  6041   0.365E-03    0.267E-03
DAV:   4    -0.158637109467E+04    0.18707E-05   -0.20217E-06  6041   0.264E-03    0.137E-03
DAV:   5    -0.158637109353E+04    0.11462E-05   -0.12427E-06  6041   0.190E-03
  29 F= -.15863711E+04 E0= -.15863605E+04  d E =-.180979E-04
       N       E                     dE             d eps       ncg     rms          rms(c)
DAV:   1    -0.158637112910E+04   -0.34425E-04   -0.32723E-03 11690   0.738E-02    0.708E-03
DAV:   2    -0.158637113113E+04   -0.20308E-05   -0.18823E-05  7768   0.673E-03    0.518E-03
DAV:   3    -0.158637113211E+04   -0.98108E-06   -0.72763E-06  6092   0.407E-03    0.294E-03
DAV:   4    -0.158637113299E+04   -0.88172E-06   -0.41285E-06  6104   0.350E-03    0.863E-04
DAV:   5    -0.158637113308E+04   -0.86104E-07   -0.21352E-06  6090   0.244E-03
  30 F= -.15863711E+04 E0= -.15863605E+04  d E =-.395508E-04
       N       E                     dE             d eps       ncg     rms          rms(c)
DAV:   1    -0.158637119273E+04   -0.59742E-04   -0.10660E-02 11662   0.133E-01    0.130E-02
DAV:   2    -0.158637119409E+04   -0.13536E-05   -0.10025E-04 15600   0.123E-02    0.971E-03
DAV:   3    -0.158637119101E+04    0.30759E-05   -0.74211E-06  6482   0.503E-03    0.661E-03
DAV:   4    -0.158637118758E+04    0.34261E-05   -0.46540E-06  6104   0.469E-03    0.268E-03
DAV:   5    -0.158637118637E+04    0.12132E-05   -0.20780E-06  6097   0.324E-03
  31 F= -.15863712E+04 E0= -.15863606E+04  d E =-.532939E-04
       N       E                     dE             d eps       ncg     rms          rms(c)
DAV:   1    -0.158637116756E+04    0.20020E-04   -0.12205E-03 11690   0.461E-02    0.673E-03
DAV:   2    -0.158637117111E+04   -0.35420E-05   -0.76217E-06  6020   0.467E-03    0.405E-03
DAV:   3    -0.158637117254E+04   -0.14357E-05   -0.27253E-06  5985   0.338E-03    0.306E-03
DAV:   4    -0.158637117444E+04   -0.19025E-05   -0.14083E-06  6020   0.244E-03    0.127E-03
DAV:   5    -0.158637117565E+04   -0.12095E-05   -0.76688E-07  6020   0.153E-03
  32 F= -.15863712E+04 E0= -.15863606E+04  d E =0.107168E-04
       N       E                     dE             d eps       ncg     rms          rms(c)
DAV:   1    -0.158637121218E+04   -0.37733E-04   -0.43987E-03 11690   0.857E-02    0.763E-03
DAV:   2    -0.158637121284E+04   -0.66655E-06   -0.21018E-05  6472   0.726E-03    0.561E-03
DAV:   3    -0.158637121255E+04    0.29075E-06   -0.70874E-06  6104   0.399E-03    0.271E-03
DAV:   4    -0.158637121251E+04    0.48155E-07   -0.37139E-06  6041   0.345E-03    0.103E-03
DAV:   5    -0.158637121259E+04   -0.89407E-07   -0.18498E-06  6041   0.234E-03
  33 F= -.15863712E+04 E0= -.15863606E+04  d E =-.369410E-04
       N       E                     dE             d eps       ncg     rms          rms(c)
DAV:   1    -0.158637131033E+04   -0.97823E-04   -0.76633E-02 11620   0.357E-01    0.325E-02
DAV:   2    -0.158637134854E+04   -0.38213E-04   -0.64087E-04 17088   0.311E-02    0.250E-02
DAV:   3    -0.158637133479E+04    0.13749E-04   -0.55935E-05 11786   0.113E-02    0.114E-02
DAV:   4    -0.158637133148E+04    0.33114E-05   -0.21956E-05  8352   0.101E-02    0.586E-03
DAV:   5    -0.158637132928E+04    0.22030E-05   -0.67211E-06  6706   0.649E-03
  34 F= -.15863713E+04 E0= -.15863607E+04  d E =-.116683E-03
       N       E                     dE             d eps       ncg     rms          rms(c)
DAV:   1    -0.158637136270E+04   -0.31216E-04   -0.31936E-02 11634   0.231E-01    0.206E-02
DAV:   2    -0.158637138042E+04   -0.17728E-04   -0.27149E-04 17048   0.201E-02    0.159E-02
DAV:   3    -0.158637137536E+04    0.50661E-05   -0.17288E-05  7472   0.703E-03    0.825E-03
DAV:   4    -0.158637137403E+04    0.13264E-05   -0.10869E-05  7072   0.714E-03    0.359E-03
DAV:   5    -0.158637137328E+04    0.75139E-06   -0.33255E-06  6216   0.482E-03
  35 F= -.15863714E+04 E0= -.15863608E+04  d E =-.440034E-04
       N       E                     dE             d eps       ncg     rms          rms(c)
DAV:   1    -0.158637137665E+04   -0.26130E-05   -0.55421E-02 11620   0.304E-01    0.273E-02
DAV:   2    -0.158637140593E+04   -0.29284E-04   -0.46163E-04 17072   0.265E-02    0.211E-02
DAV:   3    -0.158637139664E+04    0.92911E-05   -0.34434E-05  9114   0.921E-03    0.102E-02
DAV:   4    -0.158637139483E+04    0.18117E-05   -0.16646E-05  7688   0.863E-03    0.461E-03
DAV:   5    -0.158637139362E+04    0.12061E-05   -0.50098E-06  6425   0.587E-03
  36 F= -.15863714E+04 E0= -.15863608E+04  d E =-.203394E-04
