LAMMPS data file via write_data, version 2 Aug 2023, timestep = 0, units = metal

300 atoms
5 atom types

0 10.77 xlo xhi
0 17.95 ylo yhi
0 17.95 zlo zhi

Masses

1 58.933
2 58.69
3 51.96
4 55.847
5 54.94

Atoms # atomic

1 5 0 0 0 0 0 0
2 5 1.795 1.795 0 0 0 0
3 3 1.795 0 1.795 0 0 0
4 4 0 1.795 1.795 0 0 0
5 4 3.59 0 0 0 0 0
6 5 5.385 1.795 0 0 0 0
7 5 5.385 0 1.795 0 0 0
8 1 3.59 1.795 1.795 0 0 0
9 2 7.18 0 0 0 0 0
10 3 8.975 1.795 0 0 0 0
11 5 8.975 0 1.795 0 0 0
12 2 7.18 1.795 1.795 0 0 0
13 1 0 3.59 0 0 0 0
14 1 1.795 5.385 0 0 0 0
15 5 1.795 3.59 1.795 0 0 0
16 2 0 5.385 1.795 0 0 0
17 2 3.59 3.59 0 0 0 0
18 1 5.385 5.385 0 0 0 0
19 3 5.385 3.59 1.795 0 0 0
20 5 3.59 5.385 1.795 0 0 0
21 1 7.18 3.59 0 0 0 0
22 1 8.975 5.385 0 0 0 0
23 3 8.975 3.59 1.795 0 0 0
24 2 7.18 5.385 1.795 0 0 0
25 2 0 7.18 0 0 0 0
26 3 1.795 8.975 0 0 0 0
27 5 1.795 7.18 1.795 0 0 0
28 2 0 8.975 1.795 0 0 0
29 5 3.59 7.18 0 0 0 0
30 1 5.385 8.975 0 0 0 0
31 5 5.385 7.18 1.795 0 0 0
32 3 3.59 8.975 1.795 0 0 0
33 1 7.18 7.18 0 0 0 0
34 3 8.975 8.975 0 0 0 0
35 2 8.975 7.18 1.795 0 0 0
36 4 7.18 8.975 1.795 0 0 0
37 1 0 10.77 0 0 0 0
38 4 1.795 12.565 0 0 0 0
39 2 1.795 10.77 1.795 0 0 0
40 5 0 12.565 1.795 0 0 0
41 5 3.59 10.77 0 0 0 0
42 2 5.385 12.565 0 0 0 0
43 5 5.385 10.77 1.795 0 0 0
44 1 3.59 12.565 1.795 0 0 0
45 4 7.18 10.77 0 0 0 0
46 4 8.975 12.565 0 0 0 0
47 2 8.975 10.77 1.795 0 0 0
48 3 7.18 12.565 1.795 0 0 0
49 1 0 14.36 0 0 0 0
50 1 1.795 16.155 0 0 0 0
51 2 1.795 14.36 1.795 0 0 0
52 1 0 16.155 1.795 0 0 0
53 4 3.59 14.36 0 0 0 0
54 4 5.385 16.155 0 0 0 0
55 4 5.385 14.36 1.795 0 0 0
56 1 3.59 16.155 1.795 0 0 0
57 1 7.18 14.36 0 0 0 0
58 5 8.975 16.155 0 0 0 0
59 5 8.975 14.36 1.795 0 0 0
60 1 7.18 16.155 1.795 0 0 0
61 1 0 0 3.59 0 0 0
62 5 1.795 1.795 3.59 0 0 0
63 3 1.795 0 5.385 0 0 0
64 5 0 1.795 5.385 0 0 0
65 4 3.59 0 3.59 0 0 0
66 2 5.385 1.795 3.59 0 0 0
67 3 5.385 0 5.385 0 0 0
68 4 3.59 1.795 5.385 0 0 0
69 3 7.18 0 3.59 0 0 0
70 4 8.975 1.795 3.59 0 0 0
71 4 8.975 0 5.385 0 0 0
72 5 7.18 1.795 5.385 0 0 0
73 4 0 3.59 3.59 0 0 0
74 2 1.795 5.385 3.59 0 0 0
75 1 1.795 3.59 5.385 0 0 0
76 1 0 5.385 5.385 0 0 0
77 3 3.59 3.59 3.59 0 0 0
78 4 5.385 5.385 3.59 0 0 0
79 2 5.385 3.59 5.385 0 0 0
80 2 3.59 5.385 5.385 0 0 0
81 4 7.18 3.59 3.59 0 0 0
82 5 8.975 5.385 3.59 0 0 0
83 2 8.975 3.59 5.385 0 0 0
84 5 7.18 5.385 5.385 0 0 0
85 3 0 7.18 3.59 0 0 0
86 3 1.795 8.975 3.59 0 0 0
87 4 1.795 7.18 5.385 0 0 0
88 3 0 8.975 5.385 0 0 0
89 1 3.59 7.18 3.59 0 0 0
90 1 5.385 8.975 3.59 0 0 0
91 1 5.385 7.18 5.385 0 0 0
92 1 3.59 8.975 5.385 0 0 0
93 1 7.18 7.18 3.59 0 0 0
94 4 8.975 8.975 3.59 0 0 0
95 1 8.975 7.18 5.385 0 0 0
96 5 7.18 8.975 5.385 0 0 0
97 1 0 10.77 3.59 0 0 0
98 3 1.795 12.565 3.59 0 0 0
99 2 1.795 10.77 5.385 0 0 0
100 5 0 12.565 5.385 0 0 0
101 2 3.59 10.77 3.59 0 0 0
102 2 5.385 12.565 3.59 0 0 0
103 3 5.385 10.77 5.385 0 0 0
104 2 3.59 12.565 5.385 0 0 0
105 5 7.18 10.77 3.59 0 0 0
106 2 8.975 12.565 3.59 0 0 0
107 5 8.975 10.77 5.385 0 0 0
108 3 7.18 12.565 5.385 0 0 0
109 1 0 14.36 3.59 0 0 0
110 3 1.795 16.155 3.59 0 0 0
111 5 1.795 14.36 5.385 0 0 0
112 4 0 16.155 5.385 0 0 0
113 3 3.59 14.36 3.59 0 0 0
114 4 5.385 16.155 3.59 0 0 0
115 5 5.385 14.36 5.385 0 0 0
116 1 3.59 16.155 5.385 0 0 0
117 2 7.18 14.36 3.59 0 0 0
118 1 8.975 16.155 3.59 0 0 0
119 2 8.975 14.36 5.385 0 0 0
120 4 7.18 16.155 5.385 0 0 0
121 2 0 0 7.18 0 0 0
122 2 1.795 1.795 7.18 0 0 0
123 3 1.795 0 8.975 0 0 0
124 4 0 1.795 8.975 0 0 0
125 4 3.59 0 7.18 0 0 0
126 4 5.385 1.795 7.18 0 0 0
127 5 5.385 0 8.975 0 0 0
128 3 3.59 1.795 8.975 0 0 0
129 4 7.18 0 7.18 0 0 0
130 3 8.975 1.795 7.18 0 0 0
131 3 8.975 0 8.975 0 0 0
132 5 7.18 1.795 8.975 0 0 0
133 3 0 3.59 7.18 0 0 0
134 1 1.795 5.385 7.18 0 0 0
135 3 1.795 3.59 8.975 0 0 0
136 3 0 5.385 8.975 0 0 0
137 5 3.59 3.59 7.18 0 0 0
138 4 5.385 5.385 7.18 0 0 0
139 1 5.385 3.59 8.975 0 0 0
140 4 3.59 5.385 8.975 0 0 0
141 4 7.18 3.59 7.18 0 0 0
142 5 8.975 5.385 7.18 0 0 0
143 5 8.975 3.59 8.975 0 0 0
144 4 7.18 5.385 8.975 0 0 0
145 1 0 7.18 7.18 0 0 0
146 1 1.795 8.975 7.18 0 0 0
147 4 1.795 7.18 8.975 0 0 0
148 1 0 8.975 8.975 0 0 0
149 3 3.59 7.18 7.18 0 0 0
150 3 5.385 8.975 7.18 0 0 0
151 1 5.385 7.18 8.975 0 0 0
152 3 3.59 8.975 8.975 0 0 0
153 2 7.18 7.18 7.18 0 0 0
154 1 8.975 8.975 7.18 0 0 0
155 3 8.975 7.18 8.975 0 0 0
156 1 7.18 8.975 8.975 0 0 0
157 3 0 10.77 7.18 0 0 0
158 4 1.795 12.565 7.18 0 0 0
159 1 1.795 10.77 8.975 0 0 0
160 2 0 12.565 8.975 0 0 0
161 3 3.59 10.77 7.18 0 0 0
162 4 5.385 12.565 7.18 0 0 0
163 3 5.385 10.77 8.975 0 0 0
164 2 3.59 12.565 8.975 0 0 0
165 4 7.18 10.77 7.18 0 0 0
166 3 8.975 12.565 7.18 0 0 0
167 5 8.975 10.77 8.975 0 0 0
168 2 7.18 12.565 8.975 0 0 0
169 2 0 14.36 7.18 0 0 0
170 3 1.795 16.155 7.18 0 0 0
171 4 1.795 14.36 8.975 0 0 0
172 4 0 16.155 8.975 0 0 0
173 4 3.59 14.36 7.18 0 0 0
174 5 5.385 16.155 7.18 0 0 0
175 4 5.385 14.36 8.975 0 0 0
176 1 3.59 16.155 8.975 0 0 0
177 1 7.18 14.36 7.18 0 0 0
178 4 8.975 16.155 7.18 0 0 0
179 2 8.975 14.36 8.975 0 0 0
180 1 7.18 16.155 8.975 0 0 0
181 2 0 0 10.77 0 0 0
182 3 1.795 1.795 10.77 0 0 0
183 3 1.795 0 12.565 0 0 0
184 5 0 1.795 12.565 0 0 0
185 4 3.59 0 10.77 0 0 0
186 2 5.385 1.795 10.77 0 0 0
187 1 5.385 0 12.565 0 0 0
188 2 3.59 1.795 12.565 0 0 0
189 4 7.18 0 10.77 0 0 0
190 2 8.975 1.795 10.77 0 0 0
191 5 8.975 0 12.565 0 0 0
192 5 7.18 1.795 12.565 0 0 0
193 2 0 3.59 10.77 0 0 0
194 5 1.795 5.385 10.77 0 0 0
195 1 1.795 3.59 12.565 0 0 0
196 3 0 5.385 12.565 0 0 0
197 2 3.59 3.59 10.77 0 0 0
198 4 5.385 5.385 10.77 0 0 0
199 2 5.385 3.59 12.565 0 0 0
200 3 3.59 5.385 12.565 0 0 0
201 4 7.18 3.59 10.77 0 0 0
202 4 8.975 5.385 10.77 0 0 0
203 1 8.975 3.59 12.565 0 0 0
204 1 7.18 5.385 12.565 0 0 0
205 2 0 7.18 10.77 0 0 0
206 3 1.795 8.975 10.77 0 0 0
207 1 1.795 7.18 12.565 0 0 0
208 3 0 8.975 12.565 0 0 0
209 4 3.59 7.18 10.77 0 0 0
210 1 5.385 8.975 10.77 0 0 0
211 5 5.385 7.18 12.565 0 0 0
212 5 3.59 8.975 12.565 0 0 0
213 1 7.18 7.18 10.77 0 0 0
214 3 8.975 8.975 10.77 0 0 0
215 5 8.975 7.18 12.565 0 0 0
216 5 7.18 8.975 12.565 0 0 0
217 5 0 10.77 10.77 0 0 0
218 4 1.795 12.565 10.77 0 0 0
219 3 1.795 10.77 12.565 0 0 0
220 4 0 12.565 12.565 0 0 0
221 1 3.59 10.77 10.77 0 0 0
222 4 5.385 12.565 10.77 0 0 0
223 3 5.385 10.77 12.565 0 0 0
224 4 3.59 12.565 12.565 0 0 0
225 2 7.18 10.77 10.77 0 0 0
226 1 8.975 12.565 10.77 0 0 0
227 2 8.975 10.77 12.565 0 0 0
228 4 7.18 12.565 12.565 0 0 0
229 4 0 14.36 10.77 0 0 0
230 2 1.795 16.155 10.77 0 0 0
231 4 1.795 14.36 12.565 0 0 0
232 3 0 16.155 12.565 0 0 0
233 1 3.59 14.36 10.77 0 0 0
234 2 5.385 16.155 10.77 0 0 0
235 1 5.385 14.36 12.565 0 0 0
236 3 3.59 16.155 12.565 0 0 0
237 5 7.18 14.36 10.77 0 0 0
238 5 8.975 16.155 10.77 0 0 0
239 1 8.975 14.36 12.565 0 0 0
240 2 7.18 16.155 12.565 0 0 0
241 4 0 0 14.36 0 0 0
242 4 1.795 1.795 14.36 0 0 0
243 2 1.795 0 16.155 0 0 0
244 3 0 1.795 16.155 0 0 0
245 3 3.59 0 14.36 0 0 0
246 5 5.385 1.795 14.36 0 0 0
247 3 5.385 0 16.155 0 0 0
248 2 3.59 1.795 16.155 0 0 0
249 4 7.18 0 14.36 0 0 0
250 2 8.975 1.795 14.36 0 0 0
251 5 8.975 0 16.155 0 0 0
252 3 7.18 1.795 16.155 0 0 0
253 4 0 3.59 14.36 0 0 0
254 1 1.795 5.385 14.36 0 0 0
255 5 1.795 3.59 16.155 0 0 0
256 3 0 5.385 16.155 0 0 0
257 2 3.59 3.59 14.36 0 0 0
258 2 5.385 5.385 14.36 0 0 0
259 2 5.385 3.59 16.155 0 0 0
260 2 3.59 5.385 16.155 0 0 0
261 2 7.18 3.59 14.36 0 0 0
262 1 8.975 5.385 14.36 0 0 0
263 3 8.975 3.59 16.155 0 0 0
264 3 7.18 5.385 16.155 0 0 0
265 2 0 7.18 14.36 0 0 0
266 1 1.795 8.975 14.36 0 0 0
267 5 1.795 7.18 16.155 0 0 0
268 4 0 8.975 16.155 0 0 0
269 2 3.59 7.18 14.36 0 0 0
270 3 5.385 8.975 14.36 0 0 0
271 3 5.385 7.18 16.155 0 0 0
272 5 3.59 8.975 16.155 0 0 0
273 5 7.18 7.18 14.36 0 0 0
274 5 8.975 8.975 14.36 0 0 0
275 4 8.975 7.18 16.155 0 0 0
276 4 7.18 8.975 16.155 0 0 0
277 5 0 10.77 14.36 0 0 0
278 5 1.795 12.565 14.36 0 0 0
279 1 1.795 10.77 16.155 0 0 0
280 5 0 12.565 16.155 0 0 0
281 3 3.59 10.77 14.36 0 0 0
282 1 5.385 12.565 14.36 0 0 0
283 5 5.385 10.77 16.155 0 0 0
284 2 3.59 12.565 16.155 0 0 0
285 5 7.18 10.77 14.36 0 0 0
286 5 8.975 12.565 14.36 0 0 0
287 4 8.975 10.77 16.155 0 0 0
288 4 7.18 12.565 16.155 0 0 0
289 5 0 14.36 14.36 0 0 0
290 3 1.795 16.155 14.36 0 0 0
291 2 1.795 14.36 16.155 0 0 0
292 3 0 16.155 16.155 0 0 0
293 2 3.59 14.36 14.36 0 0 0
294 5 5.385 16.155 14.36 0 0 0
295 1 5.385 14.36 16.155 0 0 0
296 5 3.59 16.155 16.155 0 0 0
297 3 7.18 14.36 14.36 0 0 0
298 2 8.975 16.155 14.36 0 0 0
299 2 8.975 14.36 16.155 0 0 0
300 1 7.18 16.155 16.155 0 0 0

Velocities

1 0 0 0
2 0 0 0
3 0 0 0
4 0 0 0
5 0 0 0
6 0 0 0
7 0 0 0
8 0 0 0
9 0 0 0
10 0 0 0
11 0 0 0
12 0 0 0
13 0 0 0
14 0 0 0
15 0 0 0
16 0 0 0
17 0 0 0
18 0 0 0
19 0 0 0
20 0 0 0
21 0 0 0
22 0 0 0
23 0 0 0
24 0 0 0
25 0 0 0
26 0 0 0
27 0 0 0
28 0 0 0
29 0 0 0
30 0 0 0
31 0 0 0
32 0 0 0
33 0 0 0
34 0 0 0
35 0 0 0
36 0 0 0
37 0 0 0
38 0 0 0
39 0 0 0
40 0 0 0
41 0 0 0
42 0 0 0
43 0 0 0
44 0 0 0
45 0 0 0
46 0 0 0
47 0 0 0
48 0 0 0
49 0 0 0
50 0 0 0
51 0 0 0
52 0 0 0
53 0 0 0
54 0 0 0
55 0 0 0
56 0 0 0
57 0 0 0
58 0 0 0
59 0 0 0
60 0 0 0
61 0 0 0
62 0 0 0
63 0 0 0
64 0 0 0
65 0 0 0
66 0 0 0
67 0 0 0
68 0 0 0
69 0 0 0
70 0 0 0
71 0 0 0
72 0 0 0
73 0 0 0
74 0 0 0
75 0 0 0
76 0 0 0
77 0 0 0
78 0 0 0
79 0 0 0
80 0 0 0
81 0 0 0
82 0 0 0
83 0 0 0
84 0 0 0
85 0 0 0
86 0 0 0
87 0 0 0
88 0 0 0
89 0 0 0
90 0 0 0
91 0 0 0
92 0 0 0
93 0 0 0
94 0 0 0
95 0 0 0
96 0 0 0
97 0 0 0
98 0 0 0
99 0 0 0
100 0 0 0
101 0 0 0
102 0 0 0
103 0 0 0
104 0 0 0
105 0 0 0
106 0 0 0
107 0 0 0
108 0 0 0
109 0 0 0
110 0 0 0
111 0 0 0
112 0 0 0
113 0 0 0
114 0 0 0
115 0 0 0
116 0 0 0
117 0 0 0
118 0 0 0
119 0 0 0
120 0 0 0
121 0 0 0
122 0 0 0
123 0 0 0
124 0 0 0
125 0 0 0
126 0 0 0
127 0 0 0
128 0 0 0
129 0 0 0
130 0 0 0
131 0 0 0
132 0 0 0
133 0 0 0
134 0 0 0
135 0 0 0
136 0 0 0
137 0 0 0
138 0 0 0
139 0 0 0
140 0 0 0
141 0 0 0
142 0 0 0
143 0 0 0
144 0 0 0
145 0 0 0
146 0 0 0
147 0 0 0
148 0 0 0
149 0 0 0
150 0 0 0
151 0 0 0
152 0 0 0
153 0 0 0
154 0 0 0
155 0 0 0
156 0 0 0
157 0 0 0
158 0 0 0
159 0 0 0
160 0 0 0
161 0 0 0
162 0 0 0
163 0 0 0
164 0 0 0
165 0 0 0
166 0 0 0
167 0 0 0
168 0 0 0
169 0 0 0
170 0 0 0
171 0 0 0
172 0 0 0
173 0 0 0
174 0 0 0
175 0 0 0
176 0 0 0
177 0 0 0
178 0 0 0
179 0 0 0
180 0 0 0
181 0 0 0
182 0 0 0
183 0 0 0
184 0 0 0
185 0 0 0
186 0 0 0
187 0 0 0
188 0 0 0
189 0 0 0
190 0 0 0
191 0 0 0
192 0 0 0
193 0 0 0
194 0 0 0
195 0 0 0
196 0 0 0
197 0 0 0
198 0 0 0
199 0 0 0
200 0 0 0
201 0 0 0
202 0 0 0
203 0 0 0
204 0 0 0
205 0 0 0
206 0 0 0
207 0 0 0
208 0 0 0
209 0 0 0
210 0 0 0
211 0 0 0
212 0 0 0
213 0 0 0
214 0 0 0
215 0 0 0
216 0 0 0
217 0 0 0
218 0 0 0
219 0 0 0
220 0 0 0
221 0 0 0
222 0 0 0
223 0 0 0
224 0 0 0
225 0 0 0
226 0 0 0
227 0 0 0
228 0 0 0
229 0 0 0
230 0 0 0
231 0 0 0
232 0 0 0
233 0 0 0
234 0 0 0
235 0 0 0
236 0 0 0
237 0 0 0
238 0 0 0
239 0 0 0
240 0 0 0
241 0 0 0
242 0 0 0
243 0 0 0
244 0 0 0
245 0 0 0
246 0 0 0
247 0 0 0
248 0 0 0
249 0 0 0
250 0 0 0
251 0 0 0
252 0 0 0
253 0 0 0
254 0 0 0
255 0 0 0
256 0 0 0
257 0 0 0
258 0 0 0
259 0 0 0
260 0 0 0
261 0 0 0
262 0 0 0
263 0 0 0
264 0 0 0
265 0 0 0
266 0 0 0
267 0 0 0
268 0 0 0
269 0 0 0
270 0 0 0
271 0 0 0
272 0 0 0
273 0 0 0
274 0 0 0
275 0 0 0
276 0 0 0
277 0 0 0
278 0 0 0
279 0 0 0
280 0 0 0
281 0 0 0
282 0 0 0
283 0 0 0
284 0 0 0
285 0 0 0
286 0 0 0
287 0 0 0
288 0 0 0
289 0 0 0
290 0 0 0
291 0 0 0
292 0 0 0
293 0 0 0
294 0 0 0
295 0 0 0
296 0 0 0
297 0 0 0
298 0 0 0
299 0 0 0
300 0 0 0
