       N       E                     dE             d eps       ncg     rms          rms(c)
DAV:   1     0.250672550130E+04    0.25067E+04   -0.30552E+05 12140   0.144E+03
DAV:   2    -0.119844835382E+04   -0.37052E+04   -0.35497E+04 13994   0.327E+02
DAV:   3    -0.167589655894E+04   -0.47745E+03   -0.44946E+03 18560   0.824E+01
DAV:   4    -0.170114538988E+04   -0.25249E+02   -0.24201E+02 17080   0.181E+01
DAV:   5    -0.170217999377E+04   -0.10346E+01   -0.10182E+01 18896   0.392E+00    0.441E+01
DAV:   6    -0.164886496137E+04    0.53315E+02   -0.11724E+02 18112   0.138E+01    0.229E+01
DAV:   7    -0.163335524175E+04    0.15510E+02   -0.73202E+01 17104   0.121E+01    0.129E+01
DAV:   8    -0.162593307641E+04    0.74222E+01   -0.32900E+01 16944   0.106E+01    0.478E+00
DAV:   9    -0.162478069733E+04    0.11524E+01   -0.10475E+01 17552   0.554E+00    0.181E+00
DAV:  10    -0.162481398398E+04   -0.33287E-01   -0.19048E+00 16008   0.199E+00    0.130E+00
DAV:  11    -0.162478284616E+04    0.31138E-01   -0.37081E-01 16336   0.813E-01    0.629E-01
DAV:  12    -0.162477214095E+04    0.10705E-01   -0.61866E-02 16296   0.397E-01    0.327E-01
DAV:  13    -0.162476882631E+04    0.33146E-02   -0.17062E-02 17520   0.213E-01    0.145E-01
DAV:  14    -0.162476828657E+04    0.53975E-03   -0.55145E-03 15392   0.113E-01    0.578E-02
DAV:  15    -0.162476831674E+04   -0.30175E-04   -0.15990E-03 14912   0.561E-02    0.287E-02
DAV:  16    -0.162476831080E+04    0.59384E-05   -0.23291E-04 16272   0.251E-02    0.153E-02
DAV:  17    -0.162476829957E+04    0.11234E-04   -0.52798E-05 11192   0.135E-02    0.903E-03
DAV:  18    -0.162476829061E+04    0.89544E-05   -0.21251E-05  8168   0.793E-03
   1 F= -.16247683E+04 E0= -.16247733E+04  d E =-.162477E+04
       N       E                     dE             d eps       ncg     rms          rms(c)
DAV:   1    -0.162588424288E+04   -0.11159E+01   -0.47460E+02 12124   0.310E+01    0.953E+00
DAV:   2    -0.162165592624E+04    0.42283E+01   -0.14422E+01 16432   0.513E+00    0.445E+00
DAV:   3    -0.162076085495E+04    0.89507E+00   -0.43604E+00 15912   0.293E+00    0.261E+00
DAV:   4    -0.162046094767E+04    0.29991E+00   -0.14936E+00 16480   0.226E+00    0.127E+00
DAV:   5    -0.162035776832E+04    0.10318E+00   -0.64550E-01 16000   0.151E+00    0.459E-01
DAV:   6    -0.162036055432E+04   -0.27860E-02   -0.14128E-01 15272   0.588E-01    0.336E-01
DAV:   7    -0.162036209563E+04   -0.15413E-02   -0.26452E-02 16168   0.227E-01    0.208E-01
DAV:   8    -0.162036336592E+04   -0.12703E-02   -0.90154E-03 16048   0.141E-01    0.115E-01
DAV:   9    -0.162036341694E+04   -0.51018E-04   -0.27516E-03 15040   0.896E-02    0.644E-02
DAV:  10    -0.162036327105E+04    0.14589E-03   -0.12898E-03 16272   0.481E-02    0.263E-02
DAV:  11    -0.162036328703E+04   -0.15984E-04   -0.26944E-04 17704   0.251E-02    0.199E-02
DAV:  12    -0.162036329364E+04   -0.66108E-05   -0.65557E-05 13800   0.146E-02
   2 F= -.16203633E+04 E0= -.16203688E+04  d E =0.440500E+01
       N       E                     dE             d eps       ncg     rms          rms(c)
DAV:   1    -0.162936021497E+04   -0.89969E+01   -0.15831E+02 12124   0.204E+01    0.698E+00
DAV:   2    -0.162699355037E+04    0.23667E+01   -0.39913E+00 13090   0.301E+00    0.321E+00
DAV:   3    -0.162646292981E+04    0.53062E+00   -0.13627E+00 13616   0.182E+00    0.134E+00
DAV:   4    -0.162637128230E+04    0.91648E-01   -0.44866E-01 15056   0.129E+00    0.520E-01
DAV:   5    -0.162635545192E+04    0.15830E-01   -0.15410E-01 15264   0.775E-01    0.206E-01
DAV:   6    -0.162635805869E+04   -0.26068E-02   -0.32492E-02 15464   0.286E-01    0.154E-01
DAV:   7    -0.162635940476E+04   -0.13461E-02   -0.55965E-03 16272   0.107E-01    0.898E-02
DAV:   8    -0.162636023272E+04   -0.82796E-03   -0.15847E-03 14992   0.636E-02    0.483E-02
DAV:   9    -0.162636053026E+04   -0.29754E-03   -0.61049E-04 14352   0.381E-02    0.241E-02
DAV:  10    -0.162636064161E+04   -0.11134E-03   -0.29930E-04 16200   0.239E-02    0.132E-02
DAV:  11    -0.162636065900E+04   -0.17395E-04   -0.35535E-05  9560   0.103E-02    0.743E-03
DAV:  12    -0.162636065500E+04    0.40013E-05   -0.90566E-06  7288   0.580E-03
   3 F= -.16263607E+04 E0= -.16263597E+04  d E =-.599736E+01
       N       E                     dE             d eps       ncg     rms          rms(c)
DAV:   1    -0.162640009976E+04   -0.39441E-01   -0.72869E+00 12124   0.345E+00    0.497E-01
DAV:   2    -0.162640253060E+04   -0.24308E-02   -0.13346E-01 17608   0.512E-01    0.295E-01
DAV:   3    -0.162640083952E+04    0.16911E-02   -0.18860E-02 18032   0.220E-01    0.207E-01
DAV:   4    -0.162639969995E+04    0.11396E-02   -0.57156E-03 17688   0.142E-01    0.110E-01
DAV:   5    -0.162639916535E+04    0.53460E-03   -0.29502E-03 16368   0.920E-02    0.341E-02
DAV:   6    -0.162639917336E+04   -0.80136E-05   -0.53109E-04 15192   0.345E-02    0.236E-02
DAV:   7    -0.162639917206E+04    0.13026E-05   -0.93460E-05 13968   0.156E-02
   4 F= -.16263992E+04 E0= -.16263986E+04  d E =-.385171E-01
       N       E                     dE             d eps       ncg     rms          rms(c)
DAV:   1    -0.162640205144E+04   -0.28781E-02   -0.47633E-01 12208   0.876E-01    0.108E-01
DAV:   2    -0.162640232191E+04   -0.27048E-03   -0.79860E-03 17136   0.129E-01    0.682E-02
DAV:   3    -0.162640221862E+04    0.10329E-03   -0.13349E-03 18264   0.620E-02    0.506E-02
DAV:   4    -0.162640216386E+04    0.54755E-04   -0.29770E-04 18480   0.304E-02    0.312E-02
DAV:   5    -0.162640214575E+04    0.18114E-04   -0.17965E-04 15168   0.199E-02    0.826E-03
DAV:   6    -0.162640214418E+04    0.15668E-05   -0.20411E-05  8344   0.872E-03
   5 F= -.16264021E+04 E0= -.16264016E+04  d E =-.297212E-02
       N       E                     dE             d eps       ncg     rms          rms(c)
DAV:   1    -0.162640286502E+04   -0.71927E-03   -0.10622E-01 12351   0.421E-01    0.610E-02
DAV:   2    -0.162640287370E+04   -0.86836E-05   -0.12636E-03 17248   0.547E-02    0.373E-02
DAV:   3    -0.162640285650E+04    0.17199E-04   -0.28201E-04 18527   0.302E-02    0.280E-02
DAV:   4    -0.162640284791E+04    0.85931E-05   -0.97437E-05 15256   0.176E-02    0.112E-02
DAV:   5    -0.162640285672E+04   -0.88120E-05   -0.34840E-05  8592   0.102E-02
   6 F= -.16264029E+04 E0= -.16264023E+04  d E =-.712538E-03
       N       E                     dE             d eps       ncg     rms          rms(c)
DAV:   1    -0.162640333326E+04   -0.48536E-03   -0.17789E-02 12360   0.186E-01    0.470E-02
DAV:   2    -0.162640320561E+04    0.12765E-03   -0.31031E-04 16264   0.267E-02    0.232E-02
DAV:   3    -0.162640317032E+04    0.35294E-04   -0.10345E-04 15360   0.178E-02    0.151E-02
DAV:   4    -0.162640314245E+04    0.27873E-04   -0.36049E-05 10192   0.129E-02    0.642E-03
DAV:   5    -0.162640313107E+04    0.11371E-04   -0.15396E-05  6832   0.691E-03    0.201E-03
DAV:   6    -0.162640313071E+04    0.36801E-06   -0.39117E-06  6624   0.433E-03
   7 F= -.16264031E+04 E0= -.16264026E+04  d E =-.273985E-03
       N       E                     dE             d eps       ncg     rms          rms(c)
DAV:   1    -0.162640344681E+04   -0.31574E-03   -0.32845E-02 12342   0.231E-01    0.271E-02
DAV:   2    -0.162640346802E+04   -0.21206E-04   -0.29812E-04 17688   0.253E-02    0.190E-02
DAV:   3    -0.162640346442E+04    0.35986E-05   -0.37503E-05 10367   0.129E-02    0.143E-02
DAV:   4    -0.162640346941E+04   -0.49919E-05   -0.23436E-05  7384   0.852E-03    0.238E-03
DAV:   5    -0.162640347039E+04   -0.97743E-06   -0.52153E-06  6608   0.507E-03
   8 F= -.16264035E+04 E0= -.16264029E+04  d E =-.339683E-03
       N       E                     dE             d eps       ncg     rms          rms(c)
DAV:   1    -0.162640370055E+04   -0.23114E-03   -0.26302E-02 12342   0.206E-01    0.225E-02
DAV:   2    -0.162640370189E+04   -0.13398E-05   -0.23306E-04 17712   0.217E-02    0.162E-02
DAV:   3    -0.162640369432E+04    0.75659E-05   -0.22819E-05  9056   0.104E-02    0.122E-02
DAV:   4    -0.162640368298E+04    0.11338E-04   -0.16829E-05  6992   0.749E-03    0.247E-03
DAV:   5    -0.162640368210E+04    0.88563E-06   -0.45189E-06  6608   0.468E-03
   9 F= -.16264037E+04 E0= -.16264031E+04  d E =-.211710E-03
       N       E                     dE             d eps       ncg     rms          rms(c)
DAV:   1    -0.162640378380E+04   -0.10082E-03   -0.80019E-03 12360   0.116E-01    0.176E-02
DAV:   2    -0.162640379107E+04   -0.72692E-05   -0.73225E-05 14280   0.122E-02    0.103E-02
DAV:   3    -0.162640379591E+04   -0.48370E-05   -0.12576E-05  7520   0.653E-03    0.578E-03
DAV:   4    -0.162640380032E+04   -0.44124E-05   -0.49404E-06  6600   0.536E-03    0.205E-03
DAV:   5    -0.162640380263E+04   -0.23109E-05   -0.27514E-06  6528   0.311E-03
  10 F= -.16264038E+04 E0= -.16264033E+04  d E =-.120533E-03
       N       E                     dE             d eps       ncg     rms          rms(c)
DAV:   1    -0.162640392904E+04   -0.12872E-03   -0.88483E-03 12342   0.120E-01    0.159E-02
DAV:   2    -0.162640391833E+04    0.10706E-04   -0.80834E-05 14736   0.124E-02    0.101E-02
DAV:   3    -0.162640391144E+04    0.68933E-05   -0.11565E-05  7343   0.619E-03    0.627E-03
DAV:   4    -0.162640390521E+04    0.62306E-05   -0.48109E-06  6536   0.507E-03    0.220E-03
DAV:   5    -0.162640390334E+04    0.18691E-05   -0.24069E-06  6432   0.316E-03
  11 F= -.16264039E+04 E0= -.16264034E+04  d E =-.100706E-03
       N       E                     dE             d eps       ncg     rms          rms(c)
DAV:   1    -0.162640400512E+04   -0.99913E-04   -0.11169E-02 12342   0.134E-01    0.140E-02
DAV:   2    -0.162640401401E+04   -0.88884E-05   -0.92189E-05 15536   0.128E-02    0.103E-02
DAV:   3    -0.162640401499E+04   -0.97711E-06   -0.96657E-06  7080   0.558E-03    0.500E-03
DAV:   4    -0.162640401720E+04   -0.22155E-05   -0.46303E-06  6536   0.488E-03    0.123E-03
DAV:   5    -0.162640401693E+04    0.27221E-06   -0.13917E-06  6440   0.267E-03
  12 F= -.16264040E+04 E0= -.16264035E+04  d E =-.113591E-03
       N       E                     dE             d eps       ncg     rms          rms(c)
DAV:   1    -0.162640410089E+04   -0.83688E-04   -0.76986E-03 12342   0.112E-01    0.135E-02
DAV:   2    -0.162640409391E+04    0.69779E-05   -0.65052E-05 13992   0.110E-02    0.894E-03
DAV:   3    -0.162640408777E+04    0.61409E-05   -0.93516E-06  6775   0.517E-03    0.482E-03
DAV:   4    -0.162640408344E+04    0.43341E-05   -0.36397E-06  6440   0.417E-03    0.156E-03
DAV:   5    -0.162640408256E+04    0.87223E-06   -0.16418E-06  6416   0.287E-03
  13 F= -.16264041E+04 E0= -.16264036E+04  d E =-.656356E-04
       N       E                     dE             d eps       ncg     rms          rms(c)
DAV:   1    -0.162640412336E+04   -0.39923E-04   -0.26327E-03 12342   0.664E-02    0.100E-02
DAV:   2    -0.162640412813E+04   -0.47753E-05   -0.17976E-05  6600   0.673E-03    0.594E-03
DAV:   3    -0.162640413304E+04   -0.49090E-05   -0.76320E-06  6415   0.400E-03    0.192E-03
DAV:   4    -0.162640413536E+04   -0.23185E-05   -0.30870E-06  6416   0.293E-03    0.961E-04
DAV:   5    -0.162640413580E+04   -0.43492E-06   -0.15286E-06  6416   0.223E-03
  14 F= -.16264041E+04 E0= -.16264036E+04  d E =-.532326E-04
       N       E                     dE             d eps       ncg     rms          rms(c)
DAV:   1    -0.162640419573E+04   -0.60370E-04   -0.54759E-03 12326   0.938E-02    0.103E-02
DAV:   2    -0.162640419296E+04    0.27687E-05   -0.40241E-05 10696   0.927E-03    0.726E-03
DAV:   3    -0.162640418917E+04    0.37950E-05   -0.94207E-06  6639   0.491E-03    0.297E-03
DAV:   4    -0.162640418741E+04    0.17589E-05   -0.39399E-06  6440   0.378E-03    0.951E-04
DAV:   5    -0.162640418749E+04   -0.82822E-07   -0.19232E-06  6416   0.276E-03
  15 F= -.16264042E+04 E0= -.16264037E+04  d E =-.516952E-04
       N       E                     dE             d eps       ncg     rms          rms(c)
DAV:   1    -0.162640422541E+04   -0.38000E-04   -0.38733E-03 12310   0.790E-02    0.899E-03
DAV:   2    -0.162640422959E+04   -0.41757E-05   -0.23567E-05  7712   0.779E-03    0.611E-03
DAV:   3    -0.162640423302E+04   -0.34362E-05   -0.92455E-06  6488   0.442E-03    0.153E-03
DAV:   4    -0.162640423438E+04   -0.13535E-05   -0.39636E-06  6416   0.317E-03    0.745E-04
DAV:   5    -0.162640423452E+04   -0.14245E-06   -0.20910E-06  6408   0.248E-03
  16 F= -.16264042E+04 E0= -.16264037E+04  d E =-.470254E-04
       N       E                     dE             d eps       ncg     rms          rms(c)
DAV:   1    -0.162640426686E+04   -0.32488E-04   -0.18568E-03 12342   0.552E-02    0.758E-03
DAV:   2    -0.162640426126E+04    0.56034E-05   -0.13512E-05  6640   0.597E-03    0.467E-03
DAV:   3    -0.162640425740E+04    0.38635E-05   -0.55325E-06  6407   0.365E-03    0.184E-03
DAV:   4    -0.162640425584E+04    0.15533E-05   -0.26306E-06  6416   0.288E-03    0.898E-04
DAV:   5    -0.162640425562E+04    0.22456E-06   -0.14230E-06  6416   0.223E-03
  17 F= -.16264043E+04 E0= -.16264037E+04  d E =-.211005E-04
       N       E                     dE             d eps       ncg     rms          rms(c)
DAV:   1    -0.162640428116E+04   -0.25317E-04   -0.23109E-03 12294   0.610E-02    0.680E-03
DAV:   2    -0.162640428415E+04   -0.29861E-05   -0.14382E-05  7864   0.614E-03    0.470E-03
DAV:   3    -0.162640428675E+04   -0.26034E-05   -0.58941E-06  6464   0.358E-03    0.103E-03
DAV:   4    -0.162640428755E+04   -0.80482E-06   -0.25840E-06  6416   0.256E-03    0.540E-04
DAV:   5    -0.162640428763E+04   -0.71977E-07   -0.14161E-06  6400   0.201E-03
  18 F= -.16264043E+04 E0= -.16264038E+04  d E =-.320082E-04
       N       E                     dE             d eps       ncg     rms          rms(c)
DAV:   1    -0.162640431729E+04   -0.29737E-04   -0.29031E-03 12278   0.682E-02    0.739E-03
DAV:   2    -0.162640431502E+04    0.22706E-05   -0.17916E-05  7416   0.689E-03    0.515E-03
DAV:   3    -0.162640431240E+04    0.26248E-05   -0.67862E-06  6423   0.392E-03    0.159E-03
DAV:   4    -0.162640431173E+04    0.66309E-06   -0.32273E-06  6416   0.300E-03    0.680E-04
DAV:   5    -0.162640431193E+04   -0.19627E-06   -0.17626E-06  6408   0.237E-03
  19 F= -.16264043E+04 E0= -.16264038E+04  d E =-.243027E-04
       N       E                     dE             d eps       ncg     rms          rms(c)
DAV:   1    -0.162640432244E+04   -0.10709E-04   -0.82771E-04 12310   0.370E-02    0.551E-03
DAV:   2    -0.162640432570E+04   -0.32548E-05   -0.67053E-06  6392   0.417E-03    0.332E-03
DAV:   3    -0.162640432855E+04   -0.28556E-05   -0.30032E-06  6375   0.265E-03    0.113E-03
DAV:   4    -0.162640432985E+04   -0.12956E-05   -0.13991E-06  6392   0.196E-03    0.576E-04
DAV:   5    -0.162640433008E+04   -0.23564E-06   -0.75584E-07  6392   0.153E-03
  20 F= -.16264043E+04 E0= -.16264038E+04  d E =-.181542E-04
       N       E                     dE             d eps       ncg     rms          rms(c)
DAV:   1    -0.162640434894E+04   -0.19096E-04   -0.13109E-03 12278   0.459E-02    0.522E-03
DAV:   2    -0.162640434677E+04    0.21783E-05   -0.81943E-06  6896   0.467E-03    0.355E-03
DAV:   3    -0.162640434469E+04    0.20756E-05   -0.32222E-06  6464   0.269E-03    0.114E-03
DAV:   4    -0.162640434404E+04    0.64831E-06   -0.15388E-06  6416   0.204E-03    0.504E-04
DAV:   5    -0.162640434411E+04   -0.71134E-07   -0.84009E-07  6400   0.162E-03
  21 F= -.16264043E+04 E0= -.16264038E+04  d E =-.140296E-04
       N       E                     dE             d eps       ncg     rms          rms(c)
DAV:   1    -0.162640436023E+04   -0.16193E-04   -0.20910E-03 12260   0.578E-02    0.599E-03
DAV:   2    -0.162640436227E+04   -0.20319E-05   -0.12424E-05  7120   0.573E-03    0.430E-03
DAV:   3    -0.162640436392E+04   -0.16492E-05   -0.50529E-06  6406   0.329E-03    0.709E-04
DAV:   4    -0.162640436434E+04   -0.42377E-06   -0.21515E-06  6392   0.233E-03    0.440E-04
DAV:   5    -0.162640436437E+04   -0.27560E-07   -0.11892E-06  6391   0.182E-03
  22 F= -.16264044E+04 E0= -.16264038E+04  d E =-.202546E-04
       N       E                     dE             d eps       ncg     rms          rms(c)
DAV:   1    -0.162640437567E+04   -0.11331E-04   -0.48378E-04 12294   0.286E-02    0.484E-03
DAV:   2    -0.162640437145E+04    0.42194E-05   -0.44507E-06  6368   0.340E-03    0.271E-03
DAV:   3    -0.162640436877E+04    0.26858E-05   -0.19553E-06  6351   0.220E-03    0.108E-03
DAV:   4    -0.162640436757E+04    0.11933E-05   -0.91760E-07  6344   0.169E-03    0.553E-04
DAV:   5    -0.162640436729E+04    0.28264E-06   -0.49222E-07  6344   0.130E-03
  23 F= -.16264044E+04 E0= -.16264038E+04  d E =-.292265E-05
       N       E                     dE             d eps       ncg     rms          rms(c)
DAV:   1    -0.162640437475E+04   -0.71798E-05   -0.65453E-04 12268   0.326E-02    0.403E-03
DAV:   2    -0.162640437683E+04   -0.20758E-05   -0.42347E-06  6368   0.334E-03    0.264E-03
DAV:   3    -0.162640437872E+04   -0.18924E-05   -0.17839E-06  6327   0.198E-03    0.746E-04
DAV:   4    -0.162640437937E+04   -0.64923E-06   -0.79991E-07  6344   0.145E-03    0.378E-04
DAV:   5    -0.162640437943E+04   -0.57701E-07   -0.43402E-07  6327   0.113E-03
  24 F= -.16264044E+04 E0= -.16264039E+04  d E =-.121376E-04
       N       E                     dE             d eps       ncg     rms          rms(c)
DAV:   1    -0.162640439078E+04   -0.11406E-04   -0.12634E-03 12260   0.449E-02    0.457E-03
DAV:   2    -0.162640439024E+04    0.53313E-06   -0.73291E-06  6728   0.443E-03    0.331E-03
DAV:   3    -0.162640438926E+04    0.98386E-06   -0.29120E-06  6383   0.252E-03    0.657E-04
DAV:   4    -0.162640438918E+04    0.75421E-07   -0.13054E-06  6344   0.183E-03    0.370E-04
DAV:   5    -0.162640438929E+04   -0.11125E-06   -0.72124E-07  6344   0.145E-03
  25 F= -.16264044E+04 E0= -.16264039E+04  d E =-.986720E-05
       N       E                     dE             d eps       ncg     rms          rms(c)
DAV:   1    -0.162640439383E+04   -0.46482E-05   -0.95604E-04 12260   0.396E-02    0.523E-03
DAV:   2    -0.162640439681E+04   -0.29784E-05   -0.65583E-06  6584   0.416E-03    0.327E-03
DAV:   3    -0.162640439937E+04   -0.25644E-05   -0.27257E-06  6431   0.248E-03    0.109E-03
DAV:   4    -0.162640440049E+04   -0.11143E-05   -0.12337E-06  6392   0.186E-03    0.546E-04
DAV:   5    -0.162640440066E+04   -0.17017E-06   -0.65748E-07  6392   0.144E-03
  26 F= -.16264044E+04 E0= -.16264039E+04  d E =-.113643E-04
       N       E                     dE             d eps       ncg     rms          rms(c)
DAV:   1    -0.162640440682E+04   -0.63288E-05   -0.70573E-05 11864   0.121E-02    0.341E-03
DAV:   2    -0.162640440335E+04    0.34700E-05   -0.13626E-06  6344   0.186E-03    0.164E-03
DAV:   3    -0.162640440121E+04    0.21400E-05   -0.62961E-07  6344   0.126E-03    0.627E-04
DAV:   4    -0.162640440031E+04    0.90092E-06   -0.26092E-07  6344   0.926E-04    0.306E-04
DAV:   5    -0.162640440000E+04    0.31130E-06   -0.12957E-07  6344   0.675E-04
  27 F= -.16264044E+04 E0= -.16264039E+04  d E =0.663585E-06
       N       E                     dE             d eps       ncg     rms          rms(c)
DAV:   1    -0.162640440578E+04   -0.54761E-05   -0.68260E-04 12224   0.330E-02    0.328E-03
DAV:   2    -0.162640440612E+04   -0.34151E-06   -0.37425E-06  6293   0.317E-03    0.240E-03
DAV:   3    -0.162640440633E+04   -0.20445E-06   -0.15507E-06  6275   0.181E-03    0.355E-04
DAV:   4    -0.162640440640E+04   -0.71407E-07   -0.62550E-07  6293   0.124E-03    0.259E-04
DAV:   5    -0.162640440642E+04   -0.18831E-07   -0.34606E-07  6282   0.963E-04
  28 F= -.16264044E+04 E0= -.16264039E+04  d E =-.642361E-05
       N       E                     dE             d eps       ncg     rms          rms(c)
DAV:   1    -0.162640442214E+04   -0.15741E-04   -0.86475E-03 12150   0.118E-01    0.117E-02
DAV:   2    -0.162640442372E+04   -0.15762E-05   -0.67829E-05 14280   0.112E-02    0.883E-03
DAV:   3    -0.162640441999E+04    0.37303E-05   -0.96244E-06  6707   0.486E-03    0.283E-03
DAV:   4    -0.162640441906E+04    0.92729E-06   -0.26963E-06  6440   0.324E-03    0.111E-03
DAV:   5    -0.162640441921E+04   -0.15455E-06   -0.96144E-07  6398   0.213E-03
  29 F= -.16264044E+04 E0= -.16264039E+04  d E =-.127957E-04
       N       E                     dE             d eps       ncg     rms          rms(c)
DAV:   1    -0.162640440888E+04    0.10183E-04   -0.30720E-03 12170   0.706E-02    0.801E-03
DAV:   2    -0.162640441198E+04   -0.31010E-05   -0.15385E-05  6368   0.667E-03    0.532E-03
DAV:   3    -0.162640441447E+04   -0.24933E-05   -0.51798E-06  6286   0.342E-03    0.170E-03
DAV:   4    -0.162640441577E+04   -0.12953E-05   -0.20818E-06  6272   0.243E-03    0.736E-04
DAV:   5    -0.162640441585E+04   -0.83955E-07   -0.98185E-07  6272   0.186E-03
  30 F= -.16264044E+04 E0= -.16264039E+04  d E =0.336369E-05
       N       E                     dE             d eps       ncg     rms          rms(c)
DAV:   1    -0.162640442420E+04   -0.84325E-05   -0.20178E-03 12172   0.569E-02    0.547E-03
DAV:   2    -0.162640442359E+04    0.61380E-06   -0.90945E-06  6277   0.500E-03    0.394E-03
DAV:   3    -0.162640442227E+04    0.13119E-05   -0.30010E-06  6241   0.247E-03    0.619E-04
DAV:   4    -0.162640442223E+04    0.40673E-07   -0.10535E-06  6269   0.155E-03    0.378E-04
DAV:   5    -0.162640442232E+04   -0.85049E-07   -0.51204E-07  6268   0.120E-03
  31 F= -.16264044E+04 E0= -.16264039E+04  d E =-.646723E-05
       N       E                     dE             d eps       ncg     rms          rms(c)
DAV:   1    -0.162640442686E+04   -0.46223E-05   -0.17902E-03 12172   0.534E-02    0.524E-03
DAV:   2    -0.162640442710E+04   -0.24546E-06   -0.10135E-05  6360   0.521E-03    0.384E-03
DAV:   3    -0.162640442668E+04    0.41694E-06   -0.40402E-06  6309   0.294E-03    0.564E-04
DAV:   4    -0.162640442682E+04   -0.13539E-06   -0.17096E-06  6320   0.202E-03    0.386E-04
DAV:   5    -0.162640442692E+04   -0.97568E-07   -0.93353E-07  6320   0.160E-03
  32 F= -.16264044E+04 E0= -.16264039E+04  d E =-.459868E-05
