       N       E                     dE             d eps       ncg     rms          rms(c)
DAV:   1     0.264470313671E+04    0.26447E+04   -0.31252E+05 12372   0.145E+03
DAV:   2    -0.119165054382E+04   -0.38364E+04   -0.36681E+04 14154   0.338E+02
DAV:   3    -0.169466750363E+04   -0.50302E+03   -0.47658E+03 18920   0.830E+01
DAV:   4    -0.172019170133E+04   -0.25524E+02   -0.24640E+02 17304   0.185E+01
DAV:   5    -0.172125134369E+04   -0.10596E+01   -0.10439E+01 19352   0.388E+00    0.455E+01
DAV:   6    -0.166409540767E+04    0.57156E+02   -0.10354E+02 17960   0.133E+01    0.235E+01
DAV:   7    -0.164717218242E+04    0.16923E+02   -0.69194E+01 17152   0.130E+01    0.118E+01
DAV:   8    -0.164025206924E+04    0.69201E+01   -0.29129E+01 17072   0.106E+01    0.369E+00
DAV:   9    -0.163991295665E+04    0.33911E+00   -0.87778E+00 17888   0.479E+00    0.192E+00
DAV:  10    -0.163989226287E+04    0.20694E-01   -0.12362E+00 15712   0.170E+00    0.131E+00
DAV:  11    -0.163986599296E+04    0.26270E-01   -0.43301E-01 17104   0.837E-01    0.701E-01
DAV:  12    -0.163985176402E+04    0.14229E-01   -0.64738E-02 17224   0.394E-01    0.354E-01
DAV:  13    -0.163984798912E+04    0.37749E-02   -0.21128E-02 17840   0.203E-01    0.122E-01
DAV:  14    -0.163984773166E+04    0.25746E-03   -0.46436E-03 15496   0.106E-01    0.498E-02
DAV:  15    -0.163984776709E+04   -0.35430E-04   -0.11580E-03 14824   0.538E-02    0.255E-02
DAV:  16    -0.163984775521E+04    0.11874E-04   -0.20573E-04 15808   0.232E-02    0.123E-02
DAV:  17    -0.163984774403E+04    0.11188E-04   -0.35322E-05  9408   0.107E-02    0.663E-03
DAV:  18    -0.163984773602E+04    0.80070E-05   -0.13302E-05  8032   0.630E-03
   1 F= -.16398477E+04 E0= -.16398469E+04  d E =-.163985E+04
       N       E                     dE             d eps       ncg     rms          rms(c)
DAV:   1    -0.164072961828E+04   -0.88187E+00   -0.29070E+02 12348   0.223E+01    0.496E+00
DAV:   2    -0.163987125505E+04    0.85836E+00   -0.60931E+00 17032   0.328E+00    0.244E+00
DAV:   3    -0.163966588411E+04    0.20537E+00   -0.12045E+00 16304   0.167E+00    0.148E+00
DAV:   4    -0.163957870037E+04    0.87184E-01   -0.39951E-01 16480   0.125E+00    0.691E-01
DAV:   5    -0.163956156544E+04    0.17135E-01   -0.17470E-01 15648   0.745E-01    0.285E-01
DAV:   6    -0.163956273278E+04   -0.11673E-02   -0.31649E-02 15896   0.270E-01    0.203E-01
DAV:   7    -0.163956305871E+04   -0.32593E-03   -0.80260E-03 16000   0.113E-01    0.105E-01
DAV:   8    -0.163956322906E+04   -0.17035E-03   -0.15489E-03 16376   0.621E-02    0.473E-02
DAV:   9    -0.163956313932E+04    0.89738E-04   -0.48449E-04 16816   0.388E-02    0.228E-02
DAV:  10    -0.163956312754E+04    0.11777E-04   -0.24708E-04 16456   0.223E-02    0.137E-02
DAV:  11    -0.163956313455E+04   -0.70141E-05   -0.33488E-05  9392   0.977E-03
   2 F= -.16395631E+04 E0= -.16395557E+04  d E =0.284601E+00
       N       E                     dE             d eps       ncg     rms          rms(c)
DAV:   1    -0.164161592492E+04   -0.20528E+01   -0.47060E+01 12348   0.109E+01    0.378E+00
DAV:   2    -0.164093180262E+04    0.68412E+00   -0.10487E+00 12800   0.148E+00    0.174E+00
DAV:   3    -0.164077007769E+04    0.16172E+00   -0.41503E-01 14570   0.102E+00    0.582E-01
DAV:   4    -0.164075340772E+04    0.16670E-01   -0.98239E-02 15624   0.615E-01    0.230E-01
DAV:   5    -0.164075094046E+04    0.24673E-02   -0.31902E-02 15488   0.346E-01    0.956E-02
DAV:   6    -0.164075181753E+04   -0.87707E-03   -0.73219E-03 16136   0.128E-01    0.680E-02
DAV:   7    -0.164075219664E+04   -0.37911E-03   -0.10843E-03 16208   0.463E-02    0.411E-02
DAV:   8    -0.164075242097E+04   -0.22433E-03   -0.28945E-04 14712   0.241E-02    0.191E-02
DAV:   9    -0.164075250213E+04   -0.81161E-04   -0.13172E-04 14984   0.161E-02    0.903E-03
DAV:  10    -0.164075251941E+04   -0.17286E-04   -0.31001E-05  9176   0.102E-02    0.476E-03
DAV:  11    -0.164075251858E+04    0.83888E-06   -0.10034E-05  7360   0.465E-03
   3 F= -.16407525E+04 E0= -.16407522E+04  d E =-.118938E+01
       N       E                     dE             d eps       ncg     rms          rms(c)
DAV:   1    -0.164088485762E+04   -0.13234E+00   -0.88660E+00 12348   0.398E+00    0.825E-01
DAV:   2    -0.164086680362E+04    0.18054E-01   -0.14091E-01 17304   0.540E-01    0.452E-01
DAV:   3    -0.164085992813E+04    0.68755E-02   -0.33884E-02 17088   0.298E-01    0.260E-01
DAV:   4    -0.164085618881E+04    0.37393E-02   -0.14496E-02 16584   0.241E-01    0.849E-02
DAV:   5    -0.164085601834E+04    0.17047E-03   -0.43430E-03 15688   0.110E-01    0.469E-02
DAV:   6    -0.164085605737E+04   -0.39028E-04   -0.68582E-04 15240   0.388E-02    0.317E-02
DAV:   7    -0.164085606652E+04   -0.91499E-05   -0.15341E-04 15872   0.171E-02    0.168E-02
DAV:   8    -0.164085606882E+04   -0.22972E-05   -0.39402E-05 10808   0.109E-02
   4 F= -.16408561E+04 E0= -.16408546E+04  d E =-.103550E+00
       N       E                     dE             d eps       ncg     rms          rms(c)
DAV:   1    -0.164085926991E+04   -0.32034E-02   -0.79424E-01 12389   0.112E+00    0.154E-01
DAV:   2    -0.164085967201E+04   -0.40211E-03   -0.14245E-02 17488   0.173E-01    0.903E-02
DAV:   3    -0.164085952154E+04    0.15047E-03   -0.21564E-03 17661   0.796E-02    0.656E-02
DAV:   4    -0.164085943466E+04    0.86884E-04   -0.47621E-04 17872   0.412E-02    0.375E-02
DAV:   5    -0.164085941158E+04    0.23076E-04   -0.25971E-04 14640   0.239E-02    0.985E-03
DAV:   6    -0.164085940979E+04    0.17951E-05   -0.26237E-05  8736   0.822E-03
   5 F= -.16408594E+04 E0= -.16408579E+04  d E =-.334097E-02
       N       E                     dE             d eps       ncg     rms          rms(c)
DAV:   1    -0.164086010519E+04   -0.69361E-03   -0.64500E-02 12600   0.331E-01    0.632E-02
DAV:   2    -0.164086005584E+04    0.49352E-04   -0.11401E-03 17096   0.520E-02    0.325E-02
DAV:   3    -0.164086004584E+04    0.99919E-05   -0.21940E-04 17280   0.251E-02    0.214E-02
DAV:   4    -0.164086004441E+04    0.14339E-05   -0.72469E-05 15000   0.175E-02    0.101E-02
DAV:   5    -0.164086005341E+04   -0.89981E-05   -0.28112E-05  8008   0.894E-03
   6 F= -.16408601E+04 E0= -.16408586E+04  d E =-.643622E-03
       N       E                     dE             d eps       ncg     rms          rms(c)
DAV:   1    -0.164086027770E+04   -0.23329E-03   -0.27344E-02 12600   0.210E-01    0.286E-02
DAV:   2    -0.164086026284E+04    0.14864E-04   -0.31185E-04 15824   0.350E-02    0.185E-02
DAV:   3    -0.164086024566E+04    0.17176E-04   -0.71692E-05 13808   0.171E-02    0.135E-02
DAV:   4    -0.164086022865E+04    0.17016E-04   -0.21600E-05  7696   0.848E-03    0.358E-03
DAV:   5    -0.164086022662E+04    0.20267E-05   -0.67488E-06  7008   0.474E-03
   7 F= -.16408602E+04 E0= -.16408588E+04  d E =-.173211E-03
       N       E                     dE             d eps       ncg     rms          rms(c)
DAV:   1    -0.164086027564E+04   -0.46995E-04   -0.60809E-03 12600   0.103E-01    0.196E-02
DAV:   2    -0.164086028069E+04   -0.50463E-05   -0.67089E-05 14624   0.145E-02    0.110E-02
DAV:   3    -0.164086028393E+04   -0.32440E-05   -0.17113E-05  9144   0.825E-03    0.713E-03
DAV:   4    -0.164086029142E+04   -0.74930E-05   -0.84813E-06  7016   0.580E-03    0.157E-03
DAV:   5    -0.164086029335E+04   -0.19265E-05   -0.31924E-06  6864   0.333E-03
   8 F= -.16408603E+04 E0= -.16408589E+04  d E =-.667319E-04
       N       E                     dE             d eps       ncg     rms          rms(c)
DAV:   1    -0.164086035434E+04   -0.62918E-04   -0.28681E-03 12600   0.706E-02    0.140E-02
DAV:   2    -0.164086033684E+04    0.17499E-04   -0.27881E-05  9368   0.106E-02    0.784E-03
DAV:   3    -0.164086033040E+04    0.64476E-05   -0.93460E-06  7584   0.776E-03    0.497E-03
DAV:   4    -0.164086032280E+04    0.75974E-05   -0.64878E-06  6832   0.518E-03    0.129E-03
DAV:   5    -0.164086032201E+04    0.78780E-06   -0.23560E-06  6792   0.317E-03
   9 F= -.16408603E+04 E0= -.16408589E+04  d E =-.286590E-04
       N       E                     dE             d eps       ncg     rms          rms(c)
DAV:   1    -0.164086034203E+04   -0.19229E-04   -0.26247E-03 12600   0.646E-02    0.765E-03
DAV:   2    -0.164086034529E+04   -0.32638E-05   -0.18543E-05  7848   0.856E-03    0.524E-03
DAV:   3    -0.164086034612E+04   -0.83367E-06   -0.52772E-06  6872   0.530E-03    0.373E-03
DAV:   4    -0.164086034887E+04   -0.27468E-05   -0.40792E-06  6600   0.359E-03    0.659E-04
DAV:   5    -0.164086034881E+04    0.56777E-07   -0.17290E-06  6592   0.260E-03
  10 F= -.16408603E+04 E0= -.16408589E+04  d E =-.268043E-04
       N       E                     dE             d eps       ncg     rms          rms(c)
DAV:   1    -0.164086036530E+04   -0.16433E-04   -0.13425E-03 12600   0.465E-02    0.655E-03
DAV:   2    -0.164086036064E+04    0.46665E-05   -0.10444E-05  6720   0.599E-03    0.408E-03
DAV:   3    -0.164086035871E+04    0.19294E-05   -0.36580E-06  6600   0.413E-03    0.264E-03
DAV:   4    -0.164086035590E+04    0.28076E-05   -0.23720E-06  6576   0.301E-03    0.704E-04
DAV:   5    -0.164086035577E+04    0.12899E-06   -0.11761E-06  6576   0.208E-03
  11 F= -.16408604E+04 E0= -.16408589E+04  d E =-.695705E-05
       N       E                     dE             d eps       ncg     rms          rms(c)
DAV:   1    -0.164086035926E+04   -0.33566E-05   -0.33032E-04 12496   0.239E-02    0.474E-03
DAV:   2    -0.164086036234E+04   -0.30811E-05   -0.33141E-06  6552   0.302E-03    0.262E-03
DAV:   3    -0.164086036514E+04   -0.28004E-05   -0.16270E-06  6552   0.227E-03    0.920E-04
DAV:   4    -0.164086036611E+04   -0.97256E-06   -0.72271E-07  6552   0.185E-03    0.452E-04
DAV:   5    -0.164086036651E+04   -0.39670E-06   -0.39135E-07  6552   0.113E-03
  12 F= -.16408604E+04 E0= -.16408589E+04  d E =-.107364E-04
       N       E                     dE             d eps       ncg     rms          rms(c)
DAV:   1    -0.164086037549E+04   -0.93754E-05   -0.78408E-04 12600   0.352E-02    0.393E-03
DAV:   2    -0.164086037428E+04    0.12050E-05   -0.48960E-06  6672   0.389E-03    0.273E-03
DAV:   3    -0.164086037363E+04    0.65076E-06   -0.15909E-06  6672   0.239E-03    0.171E-03
DAV:   4    -0.164086037254E+04    0.10892E-05   -0.10404E-06  6552   0.192E-03    0.303E-04
DAV:   5    -0.164086037271E+04   -0.17027E-06   -0.50639E-07  6552   0.133E-03
  13 F= -.16408604E+04 E0= -.16408589E+04  d E =-.620395E-05
       N       E                     dE             d eps       ncg     rms          rms(c)
DAV:   1    -0.164086037702E+04   -0.44765E-05   -0.82775E-04 12600   0.362E-02    0.417E-03
DAV:   2    -0.164086037891E+04   -0.18881E-05   -0.51999E-06  6720   0.384E-03    0.286E-03
DAV:   3    -0.164086038033E+04   -0.14238E-05   -0.19551E-06  6648   0.238E-03    0.113E-03
DAV:   4    -0.164086038121E+04   -0.87870E-06   -0.10027E-06  6552   0.196E-03    0.338E-04
DAV:   5    -0.164086038113E+04    0.80638E-07   -0.54549E-07  6552   0.133E-03
  14 F= -.16408604E+04 E0= -.16408590E+04  d E =-.841619E-05
       N       E                     dE             d eps       ncg     rms          rms(c)
DAV:   1    -0.164086038524E+04   -0.40338E-05   -0.47810E-05 11640   0.996E-03    0.289E-03
DAV:   2    -0.164086038231E+04    0.29340E-05   -0.11146E-06  6552   0.171E-03    0.139E-03
DAV:   3    -0.164086038028E+04    0.20258E-05   -0.46758E-07  6552   0.113E-03    0.461E-04
DAV:   4    -0.164086037972E+04    0.56664E-06   -0.18394E-07  6552   0.933E-04    0.232E-04
DAV:   5    -0.164086037941E+04    0.30238E-06   -0.97619E-08  6552   0.551E-04
  15 F= -.16408604E+04 E0= -.16408590E+04  d E =0.171443E-05
       N       E                     dE             d eps       ncg     rms          rms(c)
DAV:   1    -0.164086038232E+04   -0.26079E-05   -0.38304E-04 12496   0.246E-02    0.266E-03
DAV:   2    -0.164086038320E+04   -0.87304E-06   -0.22060E-06  6552   0.249E-03    0.187E-03
DAV:   3    -0.164086038401E+04   -0.80906E-06   -0.83368E-07  6544   0.144E-03    0.477E-04
DAV:   4    -0.164086038428E+04   -0.27146E-06   -0.36994E-07  6552   0.115E-03    0.210E-04
DAV:   5    -0.164086038421E+04    0.67717E-07   -0.20571E-07  6536   0.797E-04
  16 F= -.16408604E+04 E0= -.16408590E+04  d E =-.479612E-05
       N       E                     dE             d eps       ncg     rms          rms(c)
DAV:   1    -0.164086038874E+04   -0.44663E-05   -0.62566E-04 12568   0.314E-02    0.337E-03
DAV:   2    -0.164086038783E+04    0.91309E-06   -0.36558E-06  6552   0.319E-03    0.238E-03
DAV:   3    -0.164086038679E+04    0.10408E-05   -0.13835E-06  6544   0.184E-03    0.652E-04
DAV:   4    -0.164086038651E+04    0.27806E-06   -0.63468E-07  6552   0.147E-03    0.262E-04
DAV:   5    -0.164086038663E+04   -0.11998E-06   -0.35055E-07  6552   0.105E-03
  17 F= -.16408604E+04 E0= -.16408590E+04  d E =-.242206E-05
       N       E                     dE             d eps       ncg     rms          rms(c)
DAV:   1    -0.164086038454E+04    0.19736E-05   -0.21787E-05  6904   0.733E-03    0.209E-03
DAV:   2    -0.164086038649E+04   -0.19510E-05   -0.11643E-06  6552   0.228E-03    0.107E-03
DAV:   3    -0.164086038826E+04   -0.17717E-05   -0.19227E-07  6552   0.693E-04    0.377E-04
DAV:   4    -0.164086038868E+04   -0.41493E-06   -0.65287E-08  6552   0.630E-04    0.183E-04
DAV:   5    -0.164086038898E+04   -0.29950E-06   -0.39094E-08  6536   0.297E-04
  18 F= -.16408604E+04 E0= -.16408590E+04  d E =-.234357E-05
       N       E                     dE             d eps       ncg     rms          rms(c)
DAV:   1    -0.164086039198E+04   -0.33081E-05   -0.25218E-04 12376   0.200E-02    0.217E-03
DAV:   2    -0.164086039120E+04    0.78109E-06   -0.14468E-06  6528   0.199E-03    0.150E-03
DAV:   3    -0.164086039036E+04    0.84129E-06   -0.52202E-07  6520   0.108E-03    0.378E-04
DAV:   4    -0.164086039017E+04    0.19577E-06   -0.21980E-07  6504   0.811E-04    0.166E-04
DAV:   5    -0.164086039022E+04   -0.57965E-07   -0.11742E-07  6504   0.589E-04
  19 F= -.16408604E+04 E0= -.16408590E+04  d E =-.124843E-05
       N       E                     dE             d eps       ncg     rms          rms(c)
DAV:   1    -0.164086039173E+04   -0.15623E-05   -0.35327E-04 12472   0.235E-02    0.245E-03
DAV:   2    -0.164086039226E+04   -0.52702E-06   -0.20554E-06  6504   0.240E-03    0.176E-03
DAV:   3    -0.164086039283E+04   -0.57315E-06   -0.87286E-07  6504   0.136E-03    0.273E-04
DAV:   4    -0.164086039283E+04    0.76398E-09   -0.33929E-07  6504   0.893E-04    0.151E-04
DAV:   5    -0.164086039283E+04    0.53979E-09   -0.18561E-07  6504   0.677E-04
  20 F= -.16408604E+04 E0= -.16408590E+04  d E =-.260318E-05
       N       E                     dE             d eps       ncg     rms          rms(c)
DAV:   1    -0.164086039440E+04   -0.15741E-05   -0.15599E-05  6560   0.621E-03    0.179E-03
DAV:   2    -0.164086039255E+04    0.18539E-05   -0.80851E-07  6528   0.187E-03    0.920E-04
DAV:   3    -0.164086039086E+04    0.16842E-05   -0.13433E-07  6504   0.523E-04    0.281E-04
DAV:   4    -0.164086039054E+04    0.32099E-06   -0.35943E-08  6504   0.410E-04    0.143E-04
DAV:   5    -0.164086039032E+04    0.22462E-06   -0.20684E-08  6504   0.235E-04
  21 F= -.16408604E+04 E0= -.16408590E+04  d E =0.250917E-05
       N       E                     dE             d eps       ncg     rms          rms(c)
DAV:   1    -0.164086039069E+04   -0.14333E-06   -0.12807E-04 12304   0.143E-02    0.174E-03
DAV:   2    -0.164086039163E+04   -0.93991E-06   -0.77656E-07  6504   0.144E-03    0.114E-03
DAV:   3    -0.164086039257E+04   -0.94634E-06   -0.29634E-07  6496   0.786E-04    0.252E-04
DAV:   4    -0.164086039273E+04   -0.15734E-06   -0.11153E-07  6480   0.547E-04    0.141E-04
DAV:   5    -0.164086039274E+04   -0.92027E-08   -0.57547E-08  6480   0.397E-04
  22 F= -.16408604E+04 E0= -.16408590E+04  d E =-.242075E-05
       N       E                     dE             d eps       ncg     rms          rms(c)
DAV:   1    -0.164086039369E+04   -0.96083E-06   -0.11983E-04 12304   0.137E-02    0.143E-03
DAV:   2    -0.164086039357E+04    0.12410E-06   -0.75843E-07  6480   0.145E-03    0.103E-03
DAV:   3    -0.164086039335E+04    0.21332E-06   -0.31152E-07  6480   0.817E-04    0.167E-04
DAV:   4    -0.164086039337E+04   -0.17561E-07   -0.12314E-07  6480   0.538E-04    0.925E-05
DAV:   5    -0.164086039338E+04   -0.14162E-07   -0.67726E-08  6480   0.408E-04
  23 F= -.16408604E+04 E0= -.16408590E+04  d E =-.645932E-06
       N       E                     dE             d eps       ncg     rms          rms(c)
DAV:   1    -0.164086039245E+04    0.91862E-06   -0.55616E-05 11776   0.971E-03    0.173E-03
DAV:   2    -0.164086039379E+04   -0.13389E-05   -0.71972E-07  6488   0.133E-03    0.942E-04
DAV:   3    -0.164086039490E+04   -0.11125E-05   -0.25225E-07  6504   0.765E-04    0.289E-04
DAV:   4    -0.164086039520E+04   -0.30056E-06   -0.91229E-08  6504   0.568E-04    0.160E-04
DAV:   5    -0.164086039531E+04   -0.11040E-06   -0.45118E-08  6504   0.373E-04
  24 F= -.16408604E+04 E0= -.16408590E+04  d E =-.192960E-05
