       N       E                     dE             d eps       ncg     rms          rms(c)
DAV:   1     0.231075508074E+04    0.23108E+04   -0.29583E+05 11816   0.143E+03
DAV:   2    -0.120106395654E+04   -0.35118E+04   -0.33685E+04 13708   0.308E+02
DAV:   3    -0.164562753644E+04   -0.44456E+03   -0.41325E+03 18168   0.817E+01
DAV:   4    -0.167066590653E+04   -0.25038E+02   -0.23474E+02 16624   0.176E+01
DAV:   5    -0.167173453203E+04   -0.10686E+01   -0.10503E+01 18288   0.407E+00    0.422E+01
DAV:   6    -0.162502715820E+04    0.46707E+02   -0.14363E+02 17896   0.158E+01    0.232E+01
DAV:   7    -0.161202673249E+04    0.13000E+02   -0.92897E+01 17048   0.150E+01    0.166E+01
DAV:   8    -0.160268269812E+04    0.93440E+01   -0.54364E+01 17160   0.125E+01    0.880E+00
DAV:   9    -0.159818794401E+04    0.44948E+01   -0.23018E+01 17240   0.786E+00    0.276E+00
DAV:  10    -0.159820726589E+04   -0.19322E-01   -0.45966E+00 16936   0.290E+00    0.165E+00
DAV:  11    -0.159817849530E+04    0.28771E-01   -0.50228E-01 15120   0.990E-01    0.991E-01
DAV:  12    -0.159816220197E+04    0.16293E-01   -0.15353E-01 13776   0.611E-01    0.531E-01
DAV:  13    -0.159815304071E+04    0.91613E-02   -0.34803E-02 15072   0.351E-01    0.292E-01
DAV:  14    -0.159814960763E+04    0.34331E-02   -0.15112E-02 14624   0.197E-01    0.106E-01
DAV:  15    -0.159814946754E+04    0.14009E-03   -0.50961E-03 15040   0.101E-01    0.476E-02
DAV:  16    -0.159814946640E+04    0.11398E-05   -0.89241E-04 16696   0.464E-02    0.320E-02
DAV:  17    -0.159814943541E+04    0.30991E-04   -0.21889E-04 16720   0.261E-02    0.205E-02
DAV:  18    -0.159814940944E+04    0.25964E-04   -0.93002E-05 14224   0.154E-02    0.948E-03
DAV:  19    -0.159814940576E+04    0.36815E-05   -0.28419E-05  7832   0.867E-03
   1 F= -.15981494E+04 E0= -.15981422E+04  d E =-.159815E+04
       N       E                     dE             d eps       ncg     rms          rms(c)
DAV:   1    -0.160145060779E+04   -0.33012E+01   -0.10734E+03 11816   0.487E+01    0.171E+01
DAV:   2    -0.158911940379E+04    0.12331E+02   -0.55841E+01 17624   0.101E+01    0.885E+00
DAV:   3    -0.158595316321E+04    0.31662E+01   -0.27260E+01 18888   0.715E+00    0.615E+00
DAV:   4    -0.158471230491E+04    0.12409E+01   -0.88124E+00 19368   0.480E+00    0.440E+00
DAV:   5    -0.158370069108E+04    0.10116E+01   -0.57416E+00 18016   0.349E+00    0.160E+00
DAV:   6    -0.158362432568E+04    0.76365E-01   -0.12439E+00 16488   0.159E+00    0.934E-01
DAV:   7    -0.158361367499E+04    0.10651E-01   -0.22520E-01 16168   0.740E-01    0.639E-01
DAV:   8    -0.158361156895E+04    0.21060E-02   -0.74136E-02 17048   0.333E-01    0.331E-01
DAV:   9    -0.158361596842E+04   -0.43995E-02   -0.38065E-02 17200   0.225E-01    0.213E-01
DAV:  10    -0.158361535545E+04    0.61297E-03   -0.84335E-03 16968   0.156E-01    0.134E-01
DAV:  11    -0.158361471471E+04    0.64074E-03   -0.40459E-03 18024   0.926E-02    0.591E-02
DAV:  12    -0.158361484190E+04   -0.12719E-03   -0.17801E-03 16952   0.521E-02    0.394E-02
DAV:  13    -0.158361490779E+04   -0.65889E-04   -0.34562E-04 15696   0.285E-02    0.236E-02
DAV:  14    -0.158361490815E+04   -0.35910E-06   -0.12852E-04 14776   0.177E-02    0.109E-02
DAV:  15    -0.158361491421E+04   -0.60588E-05   -0.35382E-05  8072   0.872E-03
   2 F= -.15836149E+04 E0= -.15836274E+04  d E =0.145345E+02
       N       E                     dE             d eps       ncg     rms          rms(c)
DAV:   1    -0.161097194786E+04   -0.27357E+02   -0.46819E+02 11816   0.357E+01    0.122E+01
DAV:   2    -0.160423684575E+04    0.67351E+01   -0.16675E+01 15586   0.624E+00    0.563E+00
DAV:   3    -0.160304190298E+04    0.11949E+01   -0.75729E+00 16328   0.400E+00    0.389E+00
DAV:   4    -0.160237481260E+04    0.66709E+00   -0.32731E+00 17648   0.336E+00    0.219E+00
DAV:   5    -0.160210088664E+04    0.27393E+00   -0.17143E+00 17104   0.214E+00    0.703E-01
DAV:   6    -0.160209721886E+04    0.36678E-02   -0.33114E-01 15152   0.873E-01    0.458E-01
DAV:   7    -0.160210012017E+04   -0.29013E-02   -0.49794E-02 15864   0.334E-01    0.310E-01
DAV:   8    -0.160210296008E+04   -0.28399E-02   -0.16585E-02 15872   0.174E-01    0.152E-01
DAV:   9    -0.160210616192E+04   -0.32018E-02   -0.87409E-03 14464   0.124E-01    0.107E-01
DAV:  10    -0.160210604342E+04    0.11850E-03   -0.22997E-03 14848   0.726E-02    0.432E-02
DAV:  11    -0.160210619061E+04   -0.14720E-03   -0.84725E-04 17056   0.413E-02    0.310E-02
DAV:  12    -0.160210633661E+04   -0.14600E-03   -0.25176E-04 14952   0.244E-02    0.252E-02
DAV:  13    -0.160210636350E+04   -0.26884E-04   -0.91867E-05 13424   0.136E-02    0.105E-02
DAV:  14    -0.160210635967E+04    0.38290E-05   -0.23794E-05  7400   0.711E-03
   3 F= -.16021064E+04 E0= -.16021009E+04  d E =-.184914E+02
       N       E                     dE             d eps       ncg     rms          rms(c)
DAV:   1    -0.160217701926E+04   -0.70656E-01   -0.11846E+01 11816   0.443E+00    0.544E-01
DAV:   2    -0.160218813747E+04   -0.11118E-01   -0.22111E-01 17464   0.658E-01    0.401E-01
DAV:   3    -0.160218308921E+04    0.50483E-02   -0.44657E-02 18680   0.349E-01    0.285E-01
DAV:   4    -0.160218128884E+04    0.18004E-02   -0.10402E-02 19304   0.161E-01    0.194E-01
DAV:   5    -0.160218040160E+04    0.88723E-03   -0.63285E-03 16232   0.115E-01    0.669E-02
DAV:   6    -0.160218028833E+04    0.11328E-03   -0.15737E-03 15928   0.610E-02    0.354E-02
DAV:   7    -0.160218025691E+04    0.31418E-04   -0.31533E-04 16112   0.299E-02    0.232E-02
DAV:   8    -0.160218024053E+04    0.16378E-04   -0.84265E-05 13680   0.147E-02    0.143E-02
DAV:   9    -0.160218023533E+04    0.51991E-05   -0.53186E-05 11928   0.944E-03
   4 F= -.16021802E+04 E0= -.16021748E+04  d E =-.738757E-01
       N       E                     dE             d eps       ncg     rms          rms(c)
DAV:   1    -0.160219468927E+04   -0.14449E-01   -0.26498E+00 11816   0.211E+00    0.288E-01
DAV:   2    -0.160219702396E+04   -0.23347E-02   -0.51932E-02 17832   0.353E-01    0.235E-01
DAV:   3    -0.160219407600E+04    0.29480E-02   -0.16139E-02 18722   0.216E-01    0.142E-01
DAV:   4    -0.160219351042E+04    0.56558E-03   -0.28379E-03 17808   0.828E-02    0.959E-02
DAV:   5    -0.160219321856E+04    0.29187E-03   -0.16852E-03 15656   0.610E-02    0.391E-02
DAV:   6    -0.160219317441E+04    0.44141E-04   -0.48046E-04 15664   0.373E-02    0.222E-02
DAV:   7    -0.160219316007E+04    0.14345E-04   -0.11120E-04 14504   0.193E-02    0.143E-02
DAV:   8    -0.160219315975E+04    0.31549E-06   -0.31752E-05  8048   0.835E-03
   5 F= -.16021932E+04 E0= -.16021879E+04  d E =-.129244E-01
       N       E                     dE             d eps       ncg     rms          rms(c)
DAV:   1    -0.160219631779E+04   -0.31577E-02   -0.28595E-01 11978   0.744E-01    0.159E-01
DAV:   2    -0.160219567741E+04    0.64038E-03   -0.46424E-03 16824   0.100E-01    0.895E-02
DAV:   3    -0.160219553858E+04    0.13883E-03   -0.19914E-03 18874   0.748E-02    0.709E-02
DAV:   4    -0.160219533702E+04    0.20156E-03   -0.82422E-04 17104   0.469E-02    0.298E-02
DAV:   5    -0.160219535039E+04   -0.13377E-04   -0.33939E-04 15224   0.287E-02    0.122E-02
DAV:   6    -0.160219535007E+04    0.32318E-06   -0.48200E-05 11144   0.132E-02
   6 F= -.16021954E+04 E0= -.16021899E+04  d E =-.219032E-02
       N       E                     dE             d eps       ncg     rms          rms(c)
DAV:   1    -0.160219731638E+04   -0.19660E-02   -0.73787E-02 11978   0.380E-01    0.912E-02
DAV:   2    -0.160219702498E+04    0.29140E-03   -0.16731E-03 17312   0.656E-02    0.553E-02
DAV:   3    -0.160219688871E+04    0.13626E-03   -0.86915E-04 19090   0.504E-02    0.394E-02
DAV:   4    -0.160219678718E+04    0.10153E-03   -0.26407E-04 17016   0.258E-02    0.203E-02
DAV:   5    -0.160219674519E+04    0.41987E-04   -0.11986E-04 14832   0.170E-02    0.757E-03
DAV:   6    -0.160219673925E+04    0.59442E-05   -0.21313E-05  7640   0.903E-03
   7 F= -.16021967E+04 E0= -.16021914E+04  d E =-.138918E-02
       N       E                     dE             d eps       ncg     rms          rms(c)
DAV:   1    -0.160219732495E+04   -0.57976E-03   -0.66181E-02 11972   0.331E-01    0.376E-02
DAV:   2    -0.160219740943E+04   -0.84478E-04   -0.82251E-04 17344   0.465E-02    0.356E-02
DAV:   3    -0.160219734753E+04    0.61898E-04   -0.26592E-04 17688   0.284E-02    0.217E-02
DAV:   4    -0.160219734358E+04    0.39543E-05   -0.52721E-05 11672   0.115E-02    0.841E-03
DAV:   5    -0.160219734471E+04   -0.11296E-05   -0.15690E-05  7696   0.837E-03
   8 F= -.16021973E+04 E0= -.16021920E+04  d E =-.605462E-03
       N       E                     dE             d eps       ncg     rms          rms(c)
DAV:   1    -0.160219771059E+04   -0.36701E-03   -0.43975E-02 11984   0.272E-01    0.363E-02
DAV:   2    -0.160219771204E+04   -0.14442E-05   -0.60402E-04 17688   0.378E-02    0.288E-02
DAV:   3    -0.160219767008E+04    0.41954E-04   -0.19386E-04 17448   0.247E-02    0.186E-02
DAV:   4    -0.160219765065E+04    0.19434E-04   -0.35973E-05  9320   0.988E-03    0.104E-02
DAV:   5    -0.160219763907E+04    0.11577E-04   -0.17201E-05  6960   0.785E-03    0.376E-03
DAV:   6    -0.160219763744E+04    0.16332E-05   -0.54678E-06  6552   0.548E-03
   9 F= -.16021976E+04 E0= -.16021923E+04  d E =-.292729E-03
       N       E                     dE             d eps       ncg     rms          rms(c)
DAV:   1    -0.160219775725E+04   -0.11818E-03   -0.39211E-03 11984   0.908E-02    0.242E-02
DAV:   2    -0.160219775369E+04    0.35610E-05   -0.69660E-05 12616   0.121E-02    0.115E-02
DAV:   3    -0.160219775940E+04   -0.57164E-05   -0.19720E-05  7072   0.716E-03    0.620E-03
DAV:   4    -0.160219776580E+04   -0.64019E-05   -0.65924E-06  6496   0.521E-03    0.315E-03
DAV:   5    -0.160219776856E+04   -0.27520E-05   -0.33029E-06  6368   0.430E-03
  10 F= -.16021978E+04 E0= -.16021924E+04  d E =-.131119E-03
       N       E                     dE             d eps       ncg     rms          rms(c)
DAV:   1    -0.160219797133E+04   -0.20552E-03   -0.19809E-02 11984   0.181E-01    0.197E-02
DAV:   2    -0.160219797781E+04   -0.64840E-05   -0.20449E-04 17472   0.207E-02    0.161E-02
DAV:   3    -0.160219796716E+04    0.10646E-04   -0.35411E-05  9672   0.121E-02    0.115E-02
DAV:   4    -0.160219796024E+04    0.69197E-05   -0.16182E-05  6728   0.679E-03    0.500E-03
DAV:   5    -0.160219795743E+04    0.28175E-05   -0.65723E-06  6408   0.544E-03
  11 F= -.16021980E+04 E0= -.16021926E+04  d E =-.188869E-03
       N       E                     dE             d eps       ncg     rms          rms(c)
DAV:   1    -0.160219812614E+04   -0.16590E-03   -0.26069E-02 11972   0.207E-01    0.206E-02
DAV:   2    -0.160219814801E+04   -0.21872E-04   -0.23576E-04 17288   0.214E-02    0.167E-02
DAV:   3    -0.160219814229E+04    0.57171E-05   -0.28155E-05  8994   0.110E-02    0.127E-02
DAV:   4    -0.160219814456E+04   -0.22644E-05   -0.20805E-05  6728   0.734E-03    0.292E-03
DAV:   5    -0.160219814544E+04   -0.87943E-06   -0.55737E-06  6400   0.551E-03
  12 F= -.16021981E+04 E0= -.16021928E+04  d E =-.188011E-03
       N       E                     dE             d eps       ncg     rms          rms(c)
DAV:   1    -0.160219819049E+04   -0.45937E-04   -0.11214E-03 11984   0.490E-02    0.136E-02
DAV:   2    -0.160219817042E+04    0.20072E-04   -0.19164E-05  7008   0.790E-03    0.671E-03
DAV:   3    -0.160219816498E+04    0.54385E-05   -0.93681E-06  6728   0.710E-03    0.485E-03
DAV:   4    -0.160219815904E+04    0.59414E-05   -0.40131E-06  6280   0.495E-03    0.200E-03
DAV:   5    -0.160219815595E+04    0.30955E-05   -0.22809E-06  6184   0.249E-03
  13 F= -.16021982E+04 E0= -.16021928E+04  d E =-.105099E-04
       N       E                     dE             d eps       ncg     rms          rms(c)
DAV:   1    -0.160219824882E+04   -0.89776E-04   -0.91092E-03 11978   0.123E-01    0.135E-02
DAV:   2    -0.160219825711E+04   -0.82954E-05   -0.77906E-05 14232   0.117E-02    0.957E-03
DAV:   3    -0.160219825826E+04   -0.11475E-05   -0.99871E-06  6970   0.586E-03    0.685E-03
DAV:   4    -0.160219826065E+04   -0.23901E-05   -0.51103E-06  6280   0.469E-03    0.215E-03
DAV:   5    -0.160219826197E+04   -0.13207E-05   -0.22057E-06  6184   0.297E-03
  14 F= -.16021983E+04 E0= -.16021929E+04  d E =-.106025E-03
       N       E                     dE             d eps       ncg     rms          rms(c)
DAV:   1    -0.160219834715E+04   -0.86495E-04   -0.95627E-03 11972   0.125E-01    0.123E-02
DAV:   2    -0.160219834909E+04   -0.19388E-05   -0.81636E-05 14496   0.117E-02    0.932E-03
DAV:   3    -0.160219834725E+04    0.18372E-05   -0.85268E-06  6768   0.542E-03    0.691E-03
DAV:   4    -0.160219834392E+04    0.33270E-05   -0.55387E-06  6200   0.442E-03    0.193E-03
DAV:   5    -0.160219834340E+04    0.52502E-06   -0.19798E-06  6160   0.301E-03
  15 F= -.16021983E+04 E0= -.16021930E+04  d E =-.814242E-04
       N       E                     dE             d eps       ncg     rms          rms(c)
DAV:   1    -0.160219839471E+04   -0.50793E-04   -0.58189E-03 11972   0.987E-02    0.116E-02
DAV:   2    -0.160219840164E+04   -0.69297E-05   -0.45806E-05 10816   0.940E-03    0.756E-03
DAV:   3    -0.160219840463E+04   -0.29854E-05   -0.97048E-06  6458   0.543E-03    0.459E-03
DAV:   4    -0.160219840734E+04   -0.27108E-05   -0.41073E-06  6168   0.434E-03    0.199E-03
DAV:   5    -0.160219840881E+04   -0.14728E-05   -0.22062E-06  6160   0.290E-03
  16 F= -.16021984E+04 E0= -.16021931E+04  d E =-.654163E-04
       N       E                     dE             d eps       ncg     rms          rms(c)
DAV:   1    -0.160219844683E+04   -0.39486E-04   -0.13040E-03 11972   0.480E-02    0.867E-03
DAV:   2    -0.160219843790E+04    0.89234E-05   -0.12525E-05  6160   0.577E-03    0.468E-03
DAV:   3    -0.160219843489E+04    0.30105E-05   -0.50957E-06  6160   0.441E-03    0.321E-03
DAV:   4    -0.160219843213E+04    0.27655E-05   -0.24283E-06  6160   0.330E-03    0.158E-03
DAV:   5    -0.160219843043E+04    0.16927E-05   -0.14383E-06  6160   0.210E-03
  17 F= -.16021984E+04 E0= -.16021931E+04  d E =-.216207E-04
       N       E                     dE             d eps       ncg     rms          rms(c)
DAV:   1    -0.160219847529E+04   -0.43163E-04   -0.45855E-03 11960   0.867E-02    0.868E-03
DAV:   2    -0.160219847823E+04   -0.29382E-05   -0.28213E-05  8976   0.804E-03    0.631E-03
DAV:   3    -0.160219847939E+04   -0.11615E-05   -0.90670E-06  6364   0.478E-03    0.331E-03
DAV:   4    -0.160219848055E+04   -0.11596E-05   -0.49014E-06  6160   0.411E-03    0.890E-04
DAV:   5    -0.160219848060E+04   -0.47829E-07   -0.24223E-06  6160   0.275E-03
  18 F= -.16021985E+04 E0= -.16021931E+04  d E =-.501627E-04
       N       E                     dE             d eps       ncg     rms          rms(c)
DAV:   1    -0.160219853695E+04   -0.56398E-04   -0.77315E-03 11960   0.113E-01    0.118E-02
DAV:   2    -0.160219853538E+04    0.15628E-05   -0.71505E-05 13640   0.109E-02    0.854E-03
DAV:   3    -0.160219853213E+04    0.32511E-05   -0.86615E-06  6424   0.504E-03    0.534E-03
DAV:   4    -0.160219852892E+04    0.32097E-05   -0.39260E-06  6160   0.417E-03    0.217E-03
DAV:   5    -0.160219852792E+04    0.10062E-05   -0.17523E-06  6160   0.311E-03
  19 F= -.16021985E+04 E0= -.16021932E+04  d E =-.473208E-04
       N       E                     dE             d eps       ncg     rms          rms(c)
DAV:   1    -0.160219852416E+04    0.47649E-05   -0.14664E-04 11760   0.184E-02    0.562E-03
DAV:   2    -0.160219852772E+04   -0.35645E-05   -0.26642E-06  6160   0.286E-03    0.265E-03
DAV:   3    -0.160219852994E+04   -0.22156E-05   -0.12107E-06  6160   0.236E-03    0.174E-03
DAV:   4    -0.160219853134E+04   -0.13999E-05   -0.54640E-07  6160   0.177E-03    0.750E-04
DAV:   5    -0.160219853248E+04   -0.11435E-05   -0.27221E-07  6160   0.929E-04
  20 F= -.16021985E+04 E0= -.16021932E+04  d E =-.456463E-05
       N       E                     dE             d eps       ncg     rms          rms(c)
DAV:   1    -0.160219856868E+04   -0.37344E-04   -0.39812E-03 11924   0.808E-02    0.758E-03
DAV:   2    -0.160219856899E+04   -0.30954E-06   -0.20444E-05  7096   0.721E-03    0.555E-03
DAV:   3    -0.160219856840E+04    0.59400E-06   -0.71053E-06  6200   0.404E-03    0.238E-03
DAV:   4    -0.160219856825E+04    0.14668E-06   -0.36534E-06  6160   0.350E-03    0.925E-04
DAV:   5    -0.160219856838E+04   -0.13103E-06   -0.18950E-06  6118   0.251E-03
  21 F= -.16021986E+04 E0= -.16021932E+04  d E =-.359005E-04
       N       E                     dE             d eps       ncg     rms          rms(c)
DAV:   1    -0.160219865477E+04   -0.86522E-04   -0.57487E-02 11840   0.307E-01    0.289E-02
DAV:   2    -0.160219868774E+04   -0.32965E-04   -0.48457E-04 17288   0.277E-02    0.222E-02
DAV:   3    -0.160219868114E+04    0.66002E-05   -0.37781E-05 10008   0.104E-02    0.119E-02
DAV:   4    -0.160219867893E+04    0.22054E-05   -0.22267E-05  8456   0.102E-02    0.381E-03
DAV:   5    -0.160219867810E+04    0.83582E-06   -0.54994E-06  6438   0.574E-03
  22 F= -.16021987E+04 E0= -.16021933E+04  d E =-.109714E-03
       N       E                     dE             d eps       ncg     rms          rms(c)
DAV:   1    -0.160219863112E+04    0.47807E-04   -0.20333E-02 11864   0.183E-01    0.192E-02
DAV:   2    -0.160219862790E+04    0.32258E-05   -0.15442E-04 16704   0.164E-02    0.139E-02
DAV:   3    -0.160219862075E+04    0.71461E-05   -0.12972E-05  7590   0.678E-03    0.921E-03
DAV:   4    -0.160219861280E+04    0.79532E-05   -0.93616E-06  6520   0.674E-03    0.260E-03
DAV:   5    -0.160219861155E+04    0.12531E-05   -0.31693E-06  6160   0.397E-03
  23 F= -.16021986E+04 E0= -.16021933E+04  d E =0.665499E-04
       N       E                     dE             d eps       ncg     rms          rms(c)
DAV:   1    -0.160219865721E+04   -0.44412E-04   -0.12215E-02 11876   0.142E-01    0.136E-02
DAV:   2    -0.160219866352E+04   -0.63135E-05   -0.86565E-05 14192   0.124E-02    0.103E-02
DAV:   3    -0.160219866307E+04    0.45013E-06   -0.11456E-05  6212   0.581E-03    0.493E-03
DAV:   4    -0.160219866383E+04   -0.75417E-06   -0.55471E-06  6168   0.517E-03    0.191E-03
DAV:   5    -0.160219866349E+04    0.33678E-06   -0.16198E-06  6160   0.294E-03
  24 F= -.16021987E+04 E0= -.16021933E+04  d E =-.519459E-04
       N       E                     dE             d eps       ncg     rms          rms(c)
DAV:   1    -0.160219869616E+04   -0.32330E-04   -0.12834E-02 11876   0.145E-01    0.136E-02
DAV:   2    -0.160219870196E+04   -0.57998E-05   -0.10976E-04 16000   0.131E-02    0.105E-02
DAV:   3    -0.160219869935E+04    0.26060E-05   -0.80650E-06  6666   0.514E-03    0.590E-03
DAV:   4    -0.160219869774E+04    0.16175E-05   -0.53457E-06  6240   0.504E-03    0.194E-03
DAV:   5    -0.160219869753E+04    0.20037E-06   -0.15826E-06  6160   0.321E-03
  25 F= -.16021987E+04 E0= -.16021933E+04  d E =-.340426E-04
       N       E                     dE             d eps       ncg     rms          rms(c)
DAV:   1    -0.160219867877E+04    0.18960E-04   -0.26342E-03 11888   0.669E-02    0.918E-03
DAV:   2    -0.160219868267E+04   -0.38950E-05   -0.15502E-05  6150   0.649E-03    0.548E-03
DAV:   3    -0.160219868535E+04   -0.26844E-05   -0.54032E-06  6106   0.389E-03    0.300E-03
DAV:   4    -0.160219868743E+04   -0.20793E-05   -0.24956E-06  6142   0.317E-03    0.160E-03
DAV:   5    -0.160219868845E+04   -0.10139E-05   -0.13405E-06  6142   0.232E-03
  26 F= -.16021987E+04 E0= -.16021933E+04  d E =0.908738E-05
       N       E                     dE             d eps       ncg     rms          rms(c)
DAV:   1    -0.160219871283E+04   -0.25401E-04   -0.40343E-03 11888   0.817E-02    0.836E-03
DAV:   2    -0.160219870936E+04    0.34770E-05   -0.19888E-05  6256   0.728E-03    0.569E-03
DAV:   3    -0.160219870695E+04    0.24104E-05   -0.61009E-06  6154   0.390E-03    0.304E-03
DAV:   4    -0.160219870533E+04    0.16121E-05   -0.30478E-06  6142   0.328E-03    0.140E-03
DAV:   5    -0.160219870493E+04    0.40924E-06   -0.16040E-06  6142   0.247E-03
  27 F= -.16021987E+04 E0= -.16021933E+04  d E =-.164784E-04
       N       E                     dE             d eps       ncg     rms          rms(c)
DAV:   1    -0.160219871277E+04   -0.74331E-05   -0.13134E-03 11924   0.463E-02    0.457E-03
DAV:   2    -0.160219871386E+04   -0.10937E-05   -0.83663E-06  6172   0.455E-03    0.337E-03
DAV:   3    -0.160219871432E+04   -0.45551E-06   -0.32103E-06  6106   0.290E-03    0.204E-03
DAV:   4    -0.160219871490E+04   -0.57829E-06   -0.19449E-06  6124   0.248E-03    0.482E-04
DAV:   5    -0.160219871490E+04   -0.57425E-08   -0.10014E-06  6124   0.174E-03
  28 F= -.16021987E+04 E0= -.16021933E+04  d E =-.997565E-05
       N       E                     dE             d eps       ncg     rms          rms(c)
DAV:   1    -0.160219871559E+04   -0.69791E-06   -0.11346E-04 11712   0.147E-02    0.307E-03
DAV:   2    -0.160219871260E+04    0.29985E-05   -0.10310E-06  6124   0.176E-03    0.157E-03
DAV:   3    -0.160219871133E+04    0.12636E-05   -0.42422E-07  6124   0.129E-03    0.103E-03
DAV:   4    -0.160219871042E+04    0.90694E-06   -0.18126E-07  6124   0.971E-04    0.481E-04
DAV:   5    -0.160219870981E+04    0.60994E-06   -0.95185E-08  6124   0.562E-04
  29 F= -.16021987E+04 E0= -.16021933E+04  d E =0.508685E-05
       N       E                     dE             d eps       ncg     rms          rms(c)
DAV:   1    -0.160219871549E+04   -0.50677E-05   -0.79021E-04 11912   0.360E-02    0.345E-03
DAV:   2    -0.160219871647E+04   -0.97906E-06   -0.41100E-06  6124   0.324E-03    0.249E-03
DAV:   3    -0.160219871697E+04   -0.49898E-06   -0.14038E-06  6106   0.184E-03    0.145E-03
DAV:   4    -0.160219871754E+04   -0.57259E-06   -0.80383E-07  6106   0.160E-03    0.340E-04
DAV:   5    -0.160219871753E+04    0.14871E-07   -0.39068E-07  6100   0.107E-03
  30 F= -.16021987E+04 E0= -.16021933E+04  d E =-.771343E-05
       N       E                     dE             d eps       ncg     rms          rms(c)
DAV:   1    -0.160219872601E+04   -0.84624E-05   -0.18821E-03 11906   0.555E-02    0.530E-03
DAV:   2    -0.160219872576E+04    0.24876E-06   -0.10592E-05  6474   0.517E-03    0.388E-03
DAV:   3    -0.160219872523E+04    0.52786E-06   -0.38672E-06  6100   0.302E-03    0.182E-03
DAV:   4    -0.160219872491E+04    0.32009E-06   -0.20887E-06  6106   0.260E-03    0.649E-04
DAV:   5    -0.160219872500E+04   -0.91163E-07   -0.11148E-06  6106   0.191E-03
  31 F= -.16021987E+04 E0= -.16021934E+04  d E =-.747170E-05
       N       E                     dE             d eps       ncg     rms          rms(c)
DAV:   1    -0.160219872054E+04    0.43726E-05   -0.14893E-04 11712   0.170E-02    0.385E-03
DAV:   2    -0.160219872315E+04   -0.26125E-05   -0.15525E-06  6106   0.217E-03    0.189E-03
DAV:   3    -0.160219872465E+04   -0.15040E-05   -0.62495E-07  6100   0.154E-03    0.109E-03
DAV:   4    -0.160219872568E+04   -0.10235E-05   -0.24495E-07  6088   0.113E-03    0.571E-04
DAV:   5    -0.160219872630E+04   -0.62172E-06   -0.12400E-07  6088   0.743E-04
  32 F= -.16021987E+04 E0= -.16021934E+04  d E =-.129794E-05
       N       E                     dE             d eps       ncg     rms          rms(c)
DAV:   1    -0.160219873316E+04   -0.74885E-05   -0.56341E-04 11912   0.306E-02    0.341E-03
DAV:   2    -0.160219873140E+04    0.17603E-05   -0.31888E-06  6088   0.288E-03    0.222E-03
DAV:   3    -0.160219873039E+04    0.10138E-05   -0.10892E-06  6076   0.164E-03    0.120E-03
DAV:   4    -0.160219872964E+04    0.74909E-06   -0.55177E-07  6088   0.135E-03    0.619E-04
DAV:   5    -0.160219872939E+04    0.24800E-06   -0.30547E-07  6088   0.106E-03
  33 F= -.16021987E+04 E0= -.16021934E+04  d E =-.309551E-05
       N       E                     dE             d eps       ncg     rms          rms(c)
DAV:   1    -0.160219873260E+04   -0.29563E-05   -0.47168E-04 11888   0.278E-02    0.270E-03
DAV:   2    -0.160219873288E+04   -0.28110E-06   -0.28446E-06  6088   0.266E-03    0.199E-03
DAV:   3    -0.160219873300E+04   -0.11806E-06   -0.10843E-06  6088   0.164E-03    0.106E-03
DAV:   4    -0.160219873312E+04   -0.12834E-06   -0.63470E-07  6088   0.142E-03    0.334E-04
DAV:   5    -0.160219873313E+04   -0.60345E-09   -0.32824E-07  6088   0.987E-04
  34 F= -.16021987E+04 E0= -.16021934E+04  d E =-.373238E-05
       N       E                     dE             d eps       ncg     rms          rms(c)
DAV:   1    -0.160219874042E+04   -0.72923E-05   -0.22811E-03 11876   0.613E-02    0.644E-03
DAV:   2    -0.160219873782E+04    0.25971E-05   -0.13366E-05  7144   0.584E-03    0.439E-03
DAV:   3    -0.160219873602E+04    0.17958E-05   -0.47375E-06  6158   0.332E-03    0.219E-03
DAV:   4    -0.160219873476E+04    0.12611E-05   -0.24864E-06  6142   0.271E-03    0.985E-04
DAV:   5    -0.160219873465E+04    0.11783E-06   -0.13420E-06  6130   0.222E-03
  35 F= -.16021987E+04 E0= -.16021934E+04  d E =-.151999E-05
       N       E                     dE             d eps       ncg     rms          rms(c)
DAV:   1    -0.160219873119E+04    0.35729E-05   -0.62453E-04 11888   0.326E-02    0.418E-03
DAV:   2    -0.160219873339E+04   -0.21978E-05   -0.31752E-06  6052   0.296E-03    0.249E-03
DAV:   3    -0.160219873471E+04   -0.13194E-05   -0.93947E-07  6052   0.159E-03    0.134E-03
DAV:   4    -0.160219873574E+04   -0.10298E-05   -0.40081E-07  6052   0.120E-03    0.716E-04
DAV:   5    -0.160219873612E+04   -0.37947E-06   -0.18803E-07  6052   0.931E-04
  36 F= -.16021987E+04 E0= -.16021934E+04  d E =-.147144E-05
       N       E                     dE             d eps       ncg     rms          rms(c)
DAV:   1    -0.160219873812E+04   -0.23786E-05   -0.33166E-04 11788   0.234E-02    0.209E-03
DAV:   2    -0.160219873821E+04   -0.97957E-07   -0.15804E-06  6052   0.206E-03    0.154E-03
DAV:   3    -0.160219873822E+04   -0.28276E-08   -0.47743E-07  6046   0.110E-03    0.815E-04
DAV:   4    -0.160219873823E+04   -0.12514E-07   -0.26817E-07  6052   0.957E-04    0.243E-04
DAV:   5    -0.160219873823E+04    0.84037E-09   -0.12578E-07  6052   0.633E-04
  37 F= -.16021987E+04 E0= -.16021934E+04  d E =-.211160E-05
       N       E                     dE             d eps       ncg     rms          rms(c)
DAV:   1    -0.160219874337E+04   -0.51454E-05   -0.26752E-03 11876   0.662E-02    0.620E-03
DAV:   2    -0.160219874356E+04   -0.18576E-06   -0.14191E-05  6216   0.600E-03    0.456E-03
DAV:   3    -0.160219874317E+04    0.38702E-06   -0.50833E-06  6070   0.345E-03    0.210E-03
DAV:   4    -0.160219874300E+04    0.17375E-06   -0.27060E-06  6088   0.298E-03    0.724E-04
DAV:   5    -0.160219874312E+04   -0.12307E-06   -0.13864E-06  6082   0.206E-03
  38 F= -.16021987E+04 E0= -.16021934E+04  d E =-.489430E-05
