       N       E                     dE             d eps       ncg     rms          rms(c)
DAV:   1     0.225553064424E+04    0.22555E+04   -0.29306E+05 11704   0.143E+03
DAV:   2    -0.119689031043E+04   -0.34524E+04   -0.33139E+04 13564   0.302E+02
DAV:   3    -0.163519897159E+04   -0.43831E+03   -0.40631E+03 18000   0.819E+01
DAV:   4    -0.166019188177E+04   -0.24993E+02   -0.23354E+02 16472   0.175E+01
DAV:   5    -0.166125170702E+04   -0.10598E+01   -0.10420E+01 18080   0.415E+00    0.416E+01
DAV:   6    -0.161813951144E+04    0.43112E+02   -0.13467E+02 17904   0.160E+01    0.235E+01
DAV:   7    -0.160672115074E+04    0.11418E+02   -0.97772E+01 19040   0.164E+01    0.179E+01
DAV:   8    -0.159442105785E+04    0.12300E+02   -0.63747E+01 17160   0.122E+01    0.916E+00
DAV:   9    -0.159017040195E+04    0.42507E+01   -0.24781E+01 16880   0.779E+00    0.280E+00
DAV:  10    -0.159016356992E+04    0.68320E-02   -0.41677E+00 16328   0.299E+00    0.171E+00
DAV:  11    -0.159015209065E+04    0.11479E-01   -0.56239E-01 15744   0.114E+00    0.124E+00
DAV:  12    -0.159012389847E+04    0.28192E-01   -0.23179E-01 14304   0.769E-01    0.627E-01
DAV:  13    -0.159011201261E+04    0.11886E-01   -0.55403E-02 14384   0.411E-01    0.315E-01
DAV:  14    -0.159010906179E+04    0.29508E-02   -0.18226E-02 16144   0.219E-01    0.160E-01
DAV:  15    -0.159010816825E+04    0.89354E-03   -0.60641E-03 14808   0.124E-01    0.706E-02
DAV:  16    -0.159010813166E+04    0.36588E-04   -0.16449E-03 15504   0.610E-02    0.398E-02
DAV:  17    -0.159010811444E+04    0.17218E-04   -0.40381E-04 16248   0.346E-02    0.246E-02
DAV:  18    -0.159010808486E+04    0.29581E-04   -0.14411E-04 15744   0.224E-02    0.115E-02
DAV:  19    -0.159010807826E+04    0.66045E-05   -0.39169E-05  8888   0.104E-02
   1 F= -.15901081E+04 E0= -.15901115E+04  d E =-.159011E+04
       N       E                     dE             d eps       ncg     rms          rms(c)
DAV:   1    -0.159503778026E+04   -0.49297E+01   -0.13564E+03 11704   0.549E+01    0.195E+01
DAV:   2    -0.157984099236E+04    0.15197E+02   -0.81561E+01 17992   0.119E+01    0.109E+01
DAV:   3    -0.157599593927E+04    0.38451E+01   -0.41421E+01 19640   0.910E+00    0.785E+00
DAV:   4    -0.157340424762E+04    0.25917E+01   -0.13357E+01 19392   0.580E+00    0.522E+00
DAV:   5    -0.157210716359E+04    0.12971E+01   -0.86580E+00 16992   0.391E+00    0.170E+00
DAV:   6    -0.157205613384E+04    0.51030E-01   -0.13714E+00 16152   0.173E+00    0.114E+00
DAV:   7    -0.157203426686E+04    0.21867E-01   -0.27571E-01 15696   0.807E-01    0.778E-01
DAV:   8    -0.157203002688E+04    0.42400E-02   -0.10062E-01 17376   0.384E-01    0.402E-01
DAV:   9    -0.157203614091E+04   -0.61140E-02   -0.55094E-02 17568   0.270E-01    0.270E-01
DAV:  10    -0.157203569273E+04    0.44817E-03   -0.15130E-02 17088   0.204E-01    0.197E-01
DAV:  11    -0.157203429974E+04    0.13930E-02   -0.72097E-03 18800   0.119E-01    0.810E-02
DAV:  12    -0.157203433665E+04   -0.36909E-04   -0.28768E-03 17800   0.622E-02    0.490E-02
DAV:  13    -0.157203445994E+04   -0.12329E-03   -0.57182E-04 16568   0.363E-02    0.332E-02
DAV:  14    -0.157203446667E+04   -0.67381E-05   -0.26952E-04 17640   0.240E-02    0.136E-02
DAV:  15    -0.157203447231E+04   -0.56319E-05   -0.57723E-05 11024   0.109E-02
   2 F= -.15720345E+04 E0= -.15720456E+04  d E =0.180736E+02
       N       E                     dE             d eps       ncg     rms          rms(c)
DAV:   1    -0.160625767236E+04   -0.34223E+02   -0.58992E+02 11704   0.403E+01    0.137E+01
DAV:   2    -0.159803861705E+04    0.82191E+01   -0.22600E+01 16566   0.730E+00    0.643E+00
DAV:   3    -0.159690585702E+04    0.11328E+01   -0.11580E+01 17296   0.524E+00    0.507E+00
DAV:   4    -0.159558461427E+04    0.13212E+01   -0.50953E+00 17960   0.408E+00    0.265E+00
DAV:   5    -0.159523925670E+04    0.34536E+00   -0.25931E+00 16360   0.246E+00    0.819E-01
DAV:   6    -0.159523782164E+04    0.14351E-02   -0.40780E-01 14472   0.102E+00    0.545E-01
DAV:   7    -0.159524103478E+04   -0.32131E-02   -0.64631E-02 15688   0.365E-01    0.386E-01
DAV:   8    -0.159524477871E+04   -0.37439E-02   -0.23388E-02 16048   0.204E-01    0.181E-01
DAV:   9    -0.159525003642E+04   -0.52577E-02   -0.15501E-02 14320   0.157E-01    0.155E-01
DAV:  10    -0.159524923529E+04    0.80112E-03   -0.32233E-03 14512   0.875E-02    0.697E-02
DAV:  11    -0.159524923508E+04    0.21447E-06   -0.16960E-03 17344   0.548E-02    0.365E-02
DAV:  12    -0.159524948187E+04   -0.24679E-03   -0.63201E-04 16432   0.348E-02    0.445E-02
DAV:  13    -0.159524949225E+04   -0.10379E-04   -0.20708E-04 15840   0.197E-02    0.181E-02
DAV:  14    -0.159524948447E+04    0.77751E-05   -0.55528E-05 11696   0.102E-02
   3 F= -.15952495E+04 E0= -.15952355E+04  d E =-.232150E+02
       N       E                     dE             d eps       ncg     rms          rms(c)
DAV:   1    -0.159533422945E+04   -0.84737E-01   -0.12646E+01 11704   0.461E+00    0.587E-01
DAV:   2    -0.159535061360E+04   -0.16384E-01   -0.25642E-01 17560   0.724E-01    0.502E-01
DAV:   3    -0.159533809577E+04    0.12518E-01   -0.70181E-02 18496   0.452E-01    0.301E-01
DAV:   4    -0.159533609730E+04    0.19985E-02   -0.12673E-02 17448   0.169E-01    0.198E-01
DAV:   5    -0.159533525650E+04    0.84080E-03   -0.66109E-03 15504   0.120E-01    0.724E-02
DAV:   6    -0.159533514938E+04    0.10712E-03   -0.19664E-03 16480   0.764E-02    0.430E-02
DAV:   7    -0.159533508298E+04    0.66404E-04   -0.48887E-04 16312   0.372E-02    0.252E-02
DAV:   8    -0.159533506416E+04    0.18816E-04   -0.12484E-04 14304   0.162E-02    0.149E-02
DAV:   9    -0.159533505765E+04    0.65088E-05   -0.45523E-05 10264   0.972E-03
   4 F= -.15953351E+04 E0= -.15953216E+04  d E =-.855732E-01
       N       E                     dE             d eps       ncg     rms          rms(c)
DAV:   1    -0.159535372567E+04   -0.18662E-01   -0.30889E+00 11708   0.229E+00    0.342E-01
DAV:   2    -0.159535891607E+04   -0.51904E-02   -0.72843E-02 18048   0.447E-01    0.333E-01
DAV:   3    -0.159535144694E+04    0.74691E-02   -0.30012E-02 18424   0.298E-01    0.158E-01
DAV:   4    -0.159535071858E+04    0.72836E-03   -0.39364E-03 16600   0.942E-02    0.102E-01
DAV:   5    -0.159535038795E+04    0.33063E-03   -0.20056E-03 15472   0.698E-02    0.448E-02
DAV:   6    -0.159535032121E+04    0.66743E-04   -0.64600E-04 15904   0.448E-02    0.261E-02
DAV:   7    -0.159535030070E+04    0.20515E-04   -0.16574E-04 15456   0.221E-02    0.161E-02
DAV:   8    -0.159535030182E+04   -0.11208E-05   -0.39821E-05  9064   0.961E-03
   5 F= -.15953503E+04 E0= -.15953369E+04  d E =-.152442E-01
       N       E                     dE             d eps       ncg     rms          rms(c)
DAV:   1    -0.159535527077E+04   -0.49701E-02   -0.21464E-01 11836   0.749E-01    0.243E-01
DAV:   2    -0.159535278949E+04    0.24813E-02   -0.76222E-03 16568   0.125E-01    0.113E-01
DAV:   3    -0.159535244828E+04    0.34121E-03   -0.35574E-03 16880   0.873E-02    0.821E-02
DAV:   4    -0.159535220965E+04    0.23863E-03   -0.14247E-03 18152   0.682E-02    0.480E-02
DAV:   5    -0.159535214583E+04    0.63815E-04   -0.75457E-04 16848   0.437E-02    0.143E-02
DAV:   6    -0.159535215288E+04   -0.70475E-05   -0.12599E-04 13800   0.180E-02    0.978E-03
DAV:   7    -0.159535215280E+04    0.79765E-07   -0.17152E-05  7048   0.679E-03
   6 F= -.15953522E+04 E0= -.15953388E+04  d E =-.185098E-02
       N       E                     dE             d eps       ncg     rms          rms(c)
DAV:   1    -0.159535826964E+04   -0.61168E-02   -0.42203E-01 11764   0.865E-01    0.155E-01
DAV:   2    -0.159535867753E+04   -0.40789E-03   -0.10948E-02 18048   0.179E-01    0.140E-01
DAV:   3    -0.159535736518E+04    0.13124E-02   -0.52338E-03 18512   0.124E-01    0.680E-02
DAV:   4    -0.159535717062E+04    0.19456E-03   -0.77657E-04 16240   0.423E-02    0.398E-02
DAV:   5    -0.159535708162E+04    0.88999E-04   -0.36309E-04 15464   0.307E-02    0.172E-02
DAV:   6    -0.159535706392E+04    0.17705E-04   -0.10126E-04 14256   0.184E-02    0.101E-02
DAV:   7    -0.159535706091E+04    0.30050E-05   -0.21781E-05  7584   0.892E-03
   7 F= -.15953571E+04 E0= -.15953437E+04  d E =-.490811E-02
       N       E                     dE             d eps       ncg     rms          rms(c)
DAV:   1    -0.159535843176E+04   -0.13678E-02   -0.17334E-01 11788   0.538E-01    0.620E-02
DAV:   2    -0.159535877891E+04   -0.34714E-03   -0.27789E-03 17408   0.913E-02    0.703E-02
DAV:   3    -0.159535845349E+04    0.32541E-03   -0.11140E-03 17736   0.588E-02    0.339E-02
DAV:   4    -0.159535843942E+04    0.14069E-04   -0.17290E-04 15776   0.191E-02    0.168E-02
DAV:   5    -0.159535843761E+04    0.18155E-05   -0.65026E-05 13136   0.139E-02
   8 F= -.15953584E+04 E0= -.15953451E+04  d E =-.137670E-02
       N       E                     dE             d eps       ncg     rms          rms(c)
DAV:   1    -0.159535901500E+04   -0.57558E-03   -0.51387E-02 11820   0.309E-01    0.625E-02
DAV:   2    -0.159535892649E+04    0.88509E-04   -0.11695E-03 17624   0.560E-02    0.454E-02
DAV:   3    -0.159535880890E+04    0.11759E-03   -0.57022E-04 18896   0.413E-02    0.273E-02
DAV:   4    -0.159535875703E+04    0.51867E-04   -0.12082E-04 15360   0.172E-02    0.143E-02
DAV:   5    -0.159535873145E+04    0.25584E-04   -0.49552E-05 10816   0.119E-02    0.549E-03
DAV:   6    -0.159535872807E+04    0.33751E-05   -0.11031E-05  6840   0.727E-03
   9 F= -.15953587E+04 E0= -.15953454E+04  d E =-.290462E-03
       N       E                     dE             d eps       ncg     rms          rms(c)
DAV:   1    -0.159535921697E+04   -0.48552E-03   -0.19245E-02 11840   0.194E-01    0.428E-02
DAV:   2    -0.159535918884E+04    0.28128E-04   -0.30309E-04 16608   0.249E-02    0.223E-02
DAV:   3    -0.159535919190E+04   -0.30585E-05   -0.11341E-04 15568   0.180E-02    0.172E-02
DAV:   4    -0.159535918904E+04    0.28597E-05   -0.44862E-05 10224   0.125E-02    0.848E-03
DAV:   5    -0.159535919783E+04   -0.87897E-05   -0.17593E-05  6712   0.740E-03
  10 F= -.15953592E+04 E0= -.15953459E+04  d E =-.469759E-03
       N       E                     dE             d eps       ncg     rms          rms(c)
DAV:   1    -0.159535952463E+04   -0.33559E-03   -0.33880E-02 11804   0.238E-01    0.261E-02
DAV:   2    -0.159535955801E+04   -0.33380E-04   -0.42326E-04 17960   0.328E-02    0.254E-02
DAV:   3    -0.159535952269E+04    0.35320E-04   -0.13084E-04 16184   0.208E-02    0.150E-02
DAV:   4    -0.159535951393E+04    0.87556E-05   -0.22251E-05  7424   0.772E-03    0.686E-03
DAV:   5    -0.159535951069E+04    0.32405E-05   -0.90623E-06  6672   0.642E-03
  11 F= -.15953595E+04 E0= -.15953462E+04  d E =-.312861E-03
       N       E                     dE             d eps       ncg     rms          rms(c)
DAV:   1    -0.159535979061E+04   -0.27668E-03   -0.56918E-02 11764   0.308E-01    0.316E-02
DAV:   2    -0.159535984059E+04   -0.49987E-04   -0.55639E-04 17120   0.338E-02    0.264E-02
DAV:   3    -0.159535982018E+04    0.20410E-04   -0.11421E-04 15292   0.198E-02    0.189E-02
DAV:   4    -0.159535982104E+04   -0.85845E-06   -0.39045E-05  9312   0.938E-03    0.591E-03
DAV:   5    -0.159535982319E+04   -0.21457E-05   -0.93459E-06  6800   0.664E-03
  12 F= -.15953598E+04 E0= -.15953465E+04  d E =-.312498E-03
       N       E                     dE             d eps       ncg     rms          rms(c)
DAV:   1    -0.159535984640E+04   -0.25356E-04   -0.23164E-03 11840   0.718E-02    0.201E-02
DAV:   2    -0.159535980935E+04    0.37050E-04   -0.36965E-05  7088   0.102E-02    0.945E-03
DAV:   3    -0.159535979687E+04    0.12480E-04   -0.14980E-05  6368   0.802E-03    0.565E-03
DAV:   4    -0.159535979015E+04    0.67140E-05   -0.64676E-06  6336   0.608E-03    0.271E-03
DAV:   5    -0.159535978592E+04    0.42399E-05   -0.32886E-06  6272   0.340E-03
  13 F= -.15953598E+04 E0= -.15953464E+04  d E =0.372740E-04
       N       E                     dE             d eps       ncg     rms          rms(c)
DAV:   1    -0.159535993831E+04   -0.14815E-03   -0.17638E-02 11804   0.171E-01    0.167E-02
DAV:   2    -0.159535995196E+04   -0.13649E-04   -0.14807E-04 16560   0.169E-02    0.134E-02
DAV:   3    -0.159535994829E+04    0.36640E-05   -0.16955E-05  8008   0.888E-03    0.102E-02
DAV:   4    -0.159535995001E+04   -0.17139E-05   -0.13619E-05  6320   0.588E-03    0.269E-03
DAV:   5    -0.159535995097E+04   -0.96606E-06   -0.39145E-06  6272   0.441E-03
  14 F= -.15953600E+04 E0= -.15953466E+04  d E =-.165059E-03
       N       E                     dE             d eps       ncg     rms          rms(c)
DAV:   1    -0.159536009914E+04   -0.14914E-03   -0.24138E-02 11760   0.200E-01    0.192E-02
DAV:   2    -0.159536010969E+04   -0.10549E-04   -0.21629E-04 16928   0.200E-02    0.157E-02
DAV:   3    -0.159536010293E+04    0.67633E-05   -0.24100E-05  8426   0.104E-02    0.120E-02
DAV:   4    -0.159536009633E+04    0.65999E-05   -0.17399E-05  6584   0.689E-03    0.373E-03
DAV:   5    -0.159536009519E+04    0.11367E-05   -0.57073E-06  6272   0.538E-03
  15 F= -.15953601E+04 E0= -.15953468E+04  d E =-.144219E-03
       N       E                     dE             d eps       ncg     rms          rms(c)
DAV:   1    -0.159536010283E+04   -0.64972E-05   -0.71096E-04 11840   0.408E-02    0.119E-02
DAV:   2    -0.159536010724E+04   -0.44124E-05   -0.14052E-05  6248   0.622E-03    0.555E-03
DAV:   3    -0.159536011144E+04   -0.42016E-05   -0.58946E-06  6240   0.527E-03    0.384E-03
DAV:   4    -0.159536011408E+04   -0.26431E-05   -0.28121E-06  6224   0.388E-03    0.159E-03
DAV:   5    -0.159536011656E+04   -0.24747E-05   -0.14580E-06  6216   0.221E-03
  16 F= -.15953601E+04 E0= -.15953468E+04  d E =-.213656E-04
       N       E                     dE             d eps       ncg     rms          rms(c)
DAV:   1    -0.159536020361E+04   -0.89529E-04   -0.69791E-03 11780   0.108E-01    0.127E-02
DAV:   2    -0.159536019786E+04    0.57551E-05   -0.61423E-05 12352   0.109E-02    0.877E-03
DAV:   3    -0.159536019490E+04    0.29569E-05   -0.11846E-05  6996   0.667E-03    0.662E-03
DAV:   4    -0.159536019021E+04    0.46928E-05   -0.47615E-06  6224   0.445E-03    0.307E-03
DAV:   5    -0.159536018762E+04    0.25904E-05   -0.26197E-06  6142   0.312E-03
  17 F= -.15953602E+04 E0= -.15953469E+04  d E =-.710591E-04
       N       E                     dE             d eps       ncg     rms          rms(c)
DAV:   1    -0.159536025036E+04   -0.60151E-04   -0.72257E-03 11760   0.109E-01    0.104E-02
DAV:   2    -0.159536025550E+04   -0.51433E-05   -0.57791E-05 11984   0.984E-03    0.798E-03
DAV:   3    -0.159536025584E+04   -0.34036E-06   -0.82635E-06  6340   0.517E-03    0.526E-03
DAV:   4    -0.159536025672E+04   -0.87947E-06   -0.46627E-06  6200   0.414E-03    0.126E-03
DAV:   5    -0.159536025668E+04    0.47176E-07   -0.15038E-06  6152   0.252E-03
  18 F= -.15953603E+04 E0= -.15953469E+04  d E =-.690575E-04
       N       E                     dE             d eps       ncg     rms          rms(c)
DAV:   1    -0.159536032996E+04   -0.73235E-04   -0.10739E-02 11744   0.134E-01    0.145E-02
DAV:   2    -0.159536032607E+04    0.38864E-05   -0.98807E-05 15288   0.126E-02    0.101E-02
DAV:   3    -0.159536032213E+04    0.39434E-05   -0.10306E-05  6966   0.612E-03    0.741E-03
DAV:   4    -0.159536031711E+04    0.50181E-05   -0.54185E-06  6248   0.514E-03    0.345E-03
DAV:   5    -0.159536031439E+04    0.27161E-05   -0.28622E-06  6128   0.349E-03
  19 F= -.15953603E+04 E0= -.15953470E+04  d E =-.577178E-04
       N       E                     dE             d eps       ncg     rms          rms(c)
DAV:   1    -0.159536031411E+04    0.30026E-05   -0.21157E-04 11808   0.232E-02    0.755E-03
DAV:   2    -0.159536031836E+04   -0.42573E-05   -0.48587E-06  6056   0.387E-03    0.363E-03
DAV:   3    -0.159536032068E+04   -0.23182E-05   -0.22463E-06  6040   0.360E-03    0.275E-03
DAV:   4    -0.159536032291E+04   -0.22258E-05   -0.10767E-06  6056   0.253E-03    0.966E-04
DAV:   5    -0.159536032457E+04   -0.16642E-05   -0.55558E-07  6056   0.127E-03
  20 F= -.15953603E+04 E0= -.15953470E+04  d E =-.101789E-04
       N       E                     dE             d eps       ncg     rms          rms(c)
DAV:   1    -0.159536036809E+04   -0.45186E-04   -0.45929E-03 11748   0.872E-02    0.816E-03
DAV:   2    -0.159536036803E+04    0.68516E-07   -0.23653E-05  7784   0.770E-03    0.594E-03
DAV:   3    -0.159536036734E+04    0.68530E-06   -0.81521E-06  6144   0.438E-03    0.320E-03
DAV:   4    -0.159536036670E+04    0.63556E-06   -0.44468E-06  6080   0.382E-03    0.956E-04
DAV:   5    -0.159536036687E+04   -0.16615E-06   -0.22655E-06  6072   0.265E-03
  21 F= -.15953604E+04 E0= -.15953470E+04  d E =-.422989E-04
       N       E                     dE             d eps       ncg     rms          rms(c)
DAV:   1    -0.159536043931E+04   -0.72602E-04   -0.28501E-02 11720   0.217E-01    0.208E-02
DAV:   2    -0.159536045893E+04   -0.19620E-04   -0.25096E-04 17120   0.195E-02    0.157E-02
DAV:   3    -0.159536045715E+04    0.17804E-05   -0.16677E-05  7364   0.684E-03    0.779E-03
DAV:   4    -0.159536045885E+04   -0.17074E-05   -0.93789E-06  6944   0.686E-03    0.319E-03
DAV:   5    -0.159536045847E+04    0.38014E-06   -0.31174E-06  6238   0.461E-03
  22 F= -.15953605E+04 E0= -.15953471E+04  d E =-.916033E-04
       N       E                     dE             d eps       ncg     rms          rms(c)
DAV:   1    -0.159536042329E+04    0.35564E-04   -0.97011E-03 11724   0.127E-01    0.140E-02
DAV:   2    -0.159536041654E+04    0.67483E-05   -0.70703E-05 13312   0.114E-02    0.964E-03
DAV:   3    -0.159536041083E+04    0.57075E-05   -0.10077E-05  6054   0.549E-03    0.583E-03
DAV:   4    -0.159536040647E+04    0.43629E-05   -0.44895E-06  6056   0.486E-03    0.249E-03
DAV:   5    -0.159536040483E+04    0.16374E-05   -0.21468E-06  6008   0.323E-03
  23 F= -.15953604E+04 E0= -.15953471E+04  d E =0.536402E-04
       N       E                     dE             d eps       ncg     rms          rms(c)
DAV:   1    -0.159536044550E+04   -0.39034E-04   -0.63754E-03 11728   0.103E-01    0.948E-03
DAV:   2    -0.159536044705E+04   -0.15413E-05   -0.32386E-05  8336   0.892E-03    0.698E-03
DAV:   3    -0.159536044685E+04    0.19399E-06   -0.95923E-06  5998   0.493E-03    0.309E-03
DAV:   4    -0.159536044710E+04   -0.24329E-06   -0.46681E-06  6008   0.419E-03    0.124E-03
DAV:   5    -0.159536044715E+04   -0.53137E-07   -0.21779E-06  6008   0.274E-03
  24 F= -.15953604E+04 E0= -.15953471E+04  d E =-.423149E-04
       N       E                     dE             d eps       ncg     rms          rms(c)
DAV:   1    -0.159536052522E+04   -0.78128E-04   -0.65536E-02 11708   0.329E-01    0.303E-02
DAV:   2    -0.159536055919E+04   -0.33966E-04   -0.54961E-04 17160   0.291E-02    0.233E-02
DAV:   3    -0.159536054609E+04    0.13098E-04   -0.51156E-05 11570   0.105E-02    0.860E-03
DAV:   4    -0.159536054464E+04    0.14513E-05   -0.13996E-05  7536   0.765E-03    0.447E-03
DAV:   5    -0.159536054361E+04    0.10332E-05   -0.42146E-06  6372   0.522E-03
  25 F= -.15953605E+04 E0= -.15953472E+04  d E =-.964587E-04
       N       E                     dE             d eps       ncg     rms          rms(c)
DAV:   1    -0.159536056232E+04   -0.17679E-04   -0.79339E-02 11712   0.362E-01    0.334E-02
DAV:   2    -0.159536060649E+04   -0.44166E-04   -0.65595E-04 17184   0.318E-02    0.256E-02
DAV:   3    -0.159536059433E+04    0.12155E-04   -0.61570E-05 12088   0.114E-02    0.103E-02
DAV:   4    -0.159536059361E+04    0.72280E-06   -0.17942E-05  7792   0.832E-03    0.476E-03
DAV:   5    -0.159536059232E+04    0.12851E-05   -0.51009E-06  6528   0.565E-03
  26 F= -.15953606E+04 E0= -.15953473E+04  d E =-.487149E-04
       N       E                     dE             d eps       ncg     rms          rms(c)
DAV:   1    -0.159536058017E+04    0.13440E-04   -0.21220E-02 11712   0.188E-01    0.183E-02
DAV:   2    -0.159536058295E+04   -0.27781E-05   -0.15920E-04 16488   0.164E-02    0.137E-02
DAV:   3    -0.159536057558E+04    0.73702E-05   -0.13419E-05  6720   0.630E-03    0.676E-03
DAV:   4    -0.159536057202E+04    0.35580E-05   -0.74766E-06  6336   0.630E-03    0.256E-03
DAV:   5    -0.159536057154E+04    0.47561E-06   -0.22944E-06  6008   0.383E-03
  27 F= -.15953606E+04 E0= -.15953472E+04  d E =0.207805E-04
       N       E                     dE             d eps       ncg     rms          rms(c)
DAV:   1    -0.159536058155E+04   -0.95360E-05   -0.54118E-03 11728   0.947E-02    0.904E-03
DAV:   2    -0.159536058315E+04   -0.16002E-05   -0.26132E-05  7448   0.813E-03    0.656E-03
DAV:   3    -0.159536058355E+04   -0.39497E-06   -0.96952E-06  5998   0.457E-03    0.202E-03
DAV:   4    -0.159536058408E+04   -0.52986E-06   -0.41446E-06  5984   0.365E-03    0.118E-03
DAV:   5    -0.159536058404E+04    0.38460E-07   -0.20840E-06  5984   0.250E-03
  28 F= -.15953606E+04 E0= -.15953472E+04  d E =-.124982E-04
