       N       E                     dE             d eps       ncg     rms          rms(c)
DAV:   1     0.243784517595E+04    0.24378E+04   -0.30241E+05 12064   0.144E+03
DAV:   2    -0.120140089275E+04   -0.36392E+04   -0.34873E+04 13924   0.321E+02
DAV:   3    -0.166726889987E+04   -0.46587E+03   -0.43682E+03 18544   0.821E+01
DAV:   4    -0.169178617780E+04   -0.24517E+02   -0.23369E+02 16928   0.178E+01
DAV:   5    -0.169279903499E+04   -0.10129E+01   -0.99629E+00 18808   0.390E+00    0.433E+01
DAV:   6    -0.164264884641E+04    0.50150E+02   -0.11610E+02 18144   0.143E+01    0.230E+01
DAV:   7    -0.163085434740E+04    0.11794E+02   -0.83821E+01 17704   0.148E+01    0.156E+01
DAV:   8    -0.161940497119E+04    0.11449E+02   -0.48401E+01 17528   0.125E+01    0.640E+00
DAV:   9    -0.161752354047E+04    0.18814E+01   -0.16653E+01 17240   0.655E+00    0.205E+00
DAV:  10    -0.161757867427E+04   -0.55134E-01   -0.24602E+00 15872   0.227E+00    0.143E+00
DAV:  11    -0.161754698371E+04    0.31691E-01   -0.34530E-01 16088   0.844E-01    0.843E-01
DAV:  12    -0.161753077729E+04    0.16206E-01   -0.13269E-01 15032   0.614E-01    0.476E-01
DAV:  13    -0.161752292293E+04    0.78544E-02   -0.32134E-02 15496   0.320E-01    0.232E-01
DAV:  14    -0.161752128957E+04    0.16334E-02   -0.10784E-02 14792   0.143E-01    0.830E-02
DAV:  15    -0.161752120948E+04    0.80087E-04   -0.23059E-03 16072   0.783E-02    0.439E-02
DAV:  16    -0.161752118537E+04    0.24114E-04   -0.59140E-04 15504   0.428E-02    0.250E-02
DAV:  17    -0.161752117291E+04    0.12462E-04   -0.15834E-04 15088   0.206E-02    0.112E-02
DAV:  18    -0.161752116729E+04    0.56138E-05   -0.36030E-05  9016   0.108E-02
   1 F= -.16175212E+04 E0= -.16175191E+04  d E =-.161752E+04
       N       E                     dE             d eps       ncg     rms          rms(c)
DAV:   1    -0.161942228414E+04   -0.19011E+01   -0.70488E+02 12040   0.380E+01    0.123E+01
DAV:   2    -0.161253971963E+04    0.68826E+01   -0.25777E+01 16984   0.668E+00    0.590E+00
DAV:   3    -0.161123469168E+04    0.13050E+01   -0.96621E+00 17936   0.454E+00    0.411E+00
DAV:   4    -0.161045583956E+04    0.77885E+00   -0.36315E+00 18248   0.343E+00    0.246E+00
DAV:   5    -0.161013526913E+04    0.32057E+00   -0.21139E+00 16392   0.226E+00    0.769E-01
DAV:   6    -0.161013152936E+04    0.37398E-02   -0.34327E-01 15320   0.926E-01    0.531E-01
DAV:   7    -0.161013023158E+04    0.12978E-02   -0.64237E-02 16336   0.387E-01    0.374E-01
DAV:   8    -0.161013088754E+04   -0.65597E-03   -0.30184E-02 16344   0.218E-01    0.183E-01
DAV:   9    -0.161013191218E+04   -0.10246E-02   -0.84794E-03 14448   0.127E-01    0.124E-01
DAV:  10    -0.161013128352E+04    0.62866E-03   -0.25318E-03 14872   0.768E-02    0.604E-02
DAV:  11    -0.161013120564E+04    0.77880E-04   -0.13601E-03 18280   0.509E-02    0.340E-02
DAV:  12    -0.161013125554E+04   -0.49897E-04   -0.41879E-04 15704   0.280E-02    0.263E-02
DAV:  13    -0.161013125143E+04    0.41104E-05   -0.11862E-04 15328   0.148E-02    0.791E-03
DAV:  14    -0.161013125437E+04   -0.29402E-05   -0.19610E-05  7824   0.722E-03
   2 F= -.16101313E+04 E0= -.16101255E+04  d E =0.738991E+01
       N       E                     dE             d eps       ncg     rms          rms(c)
DAV:   1    -0.162478699312E+04   -0.14656E+02   -0.25256E+02 12040   0.259E+01    0.891E+00
DAV:   2    -0.162099167504E+04    0.37953E+01   -0.73736E+00 14058   0.406E+00    0.408E+00
DAV:   3    -0.162024914671E+04    0.74253E+00   -0.25544E+00 14928   0.254E+00    0.229E+00
DAV:   4    -0.161996653306E+04    0.28261E+00   -0.11236E+00 15896   0.218E+00    0.113E+00
DAV:   5    -0.161989436053E+04    0.72173E-01   -0.54358E-01 15376   0.129E+00    0.335E-01
DAV:   6    -0.161989796412E+04   -0.36036E-02   -0.90127E-02 14744   0.478E-01    0.239E-01
DAV:   7    -0.161989932516E+04   -0.13610E-02   -0.14616E-02 16184   0.181E-01    0.158E-01
DAV:   8    -0.161990070936E+04   -0.13842E-02   -0.54054E-03 14960   0.106E-01    0.801E-02
DAV:   9    -0.161990122844E+04   -0.51907E-03   -0.15791E-03 14016   0.563E-02    0.450E-02
DAV:  10    -0.161990137688E+04   -0.14844E-03   -0.79165E-04 15856   0.385E-02    0.242E-02
DAV:  11    -0.161990145838E+04   -0.81503E-04   -0.14935E-04 14872   0.206E-02    0.186E-02
DAV:  12    -0.161990146435E+04   -0.59706E-05   -0.42217E-05 10360   0.113E-02
   3 F= -.16199015E+04 E0= -.16199055E+04  d E =-.977021E+01
       N       E                     dE             d eps       ncg     rms          rms(c)
DAV:   1    -0.161995397349E+04   -0.52515E-01   -0.99055E+00 12040   0.404E+00    0.554E-01
DAV:   2    -0.161996172691E+04   -0.77534E-02   -0.18799E-01 17912   0.640E-01    0.386E-01
DAV:   3    -0.161995606090E+04    0.56660E-02   -0.43153E-02 18504   0.365E-01    0.267E-01
DAV:   4    -0.161995419534E+04    0.18656E-02   -0.90202E-03 17504   0.150E-01    0.147E-01
DAV:   5    -0.161995357354E+04    0.62180E-03   -0.46838E-03 16040   0.101E-01    0.462E-02
DAV:   6    -0.161995353609E+04    0.37442E-04   -0.89492E-04 15928   0.519E-02    0.301E-02
DAV:   7    -0.161995351803E+04    0.18068E-04   -0.19370E-04 15840   0.237E-02    0.197E-02
DAV:   8    -0.161995351581E+04    0.22116E-05   -0.69934E-05 13416   0.115E-02
   4 F= -.16199535E+04 E0= -.16199574E+04  d E =-.520515E-01
       N       E                     dE             d eps       ncg     rms          rms(c)
DAV:   1    -0.161995917774E+04   -0.56597E-02   -0.81640E-01 12118   0.116E+00    0.139E-01
DAV:   2    -0.161995991337E+04   -0.73563E-03   -0.12245E-02 17240   0.186E-01    0.105E-01
DAV:   3    -0.161995943141E+04    0.48195E-03   -0.31682E-03 18610   0.998E-02    0.732E-02
DAV:   4    -0.161995931824E+04    0.11317E-03   -0.68536E-04 17104   0.403E-02    0.367E-02
DAV:   5    -0.161995930493E+04    0.13313E-04   -0.35170E-04 16184   0.282E-02    0.133E-02
DAV:   6    -0.161995929942E+04    0.55064E-05   -0.63843E-05 13408   0.149E-02
   5 F= -.16199593E+04 E0= -.16199634E+04  d E =-.578361E-02
       N       E                     dE             d eps       ncg     rms          rms(c)
DAV:   1    -0.161996090575E+04   -0.16008E-02   -0.21578E-01 12208   0.600E-01    0.880E-02
DAV:   2    -0.161996095960E+04   -0.53846E-04   -0.34867E-03 16744   0.113E-01    0.686E-02
DAV:   3    -0.161996065079E+04    0.30880E-03   -0.12893E-03 17640   0.672E-02    0.415E-02
DAV:   4    -0.161996055965E+04    0.91145E-04   -0.24640E-04 15328   0.256E-02    0.174E-02
DAV:   5    -0.161996053608E+04    0.23568E-04   -0.87788E-05 14392   0.161E-02    0.762E-03
DAV:   6    -0.161996053169E+04    0.43871E-05   -0.19303E-05  8272   0.922E-03
   6 F= -.16199605E+04 E0= -.16199648E+04  d E =-.123227E-02
       N       E                     dE             d eps       ncg     rms          rms(c)
DAV:   1    -0.161996141925E+04   -0.88316E-03   -0.75542E-02 12208   0.368E-01    0.723E-02
DAV:   2    -0.161996133710E+04    0.82144E-04   -0.10679E-03 16104   0.579E-02    0.424E-02
DAV:   3    -0.161996129325E+04    0.43857E-04   -0.43831E-04 18336   0.380E-02    0.315E-02
DAV:   4    -0.161996127707E+04    0.16178E-04   -0.14420E-04 15672   0.205E-02    0.112E-02
DAV:   5    -0.161996129115E+04   -0.14079E-04   -0.47142E-05 11872   0.111E-02    0.486E-03
DAV:   6    -0.161996129186E+04   -0.71789E-06   -0.79200E-06  6920   0.626E-03
   7 F= -.16199613E+04 E0= -.16199655E+04  d E =-.760170E-03
       N       E                     dE             d eps       ncg     rms          rms(c)
DAV:   1    -0.161996162506E+04   -0.33391E-03   -0.20050E-02 12208   0.188E-01    0.358E-02
DAV:   2    -0.161996157426E+04    0.50797E-04   -0.33257E-04 16880   0.307E-02    0.214E-02
DAV:   3    -0.161996155073E+04    0.23528E-04   -0.11528E-04 15896   0.198E-02    0.152E-02
DAV:   4    -0.161996152834E+04    0.22391E-04   -0.26016E-05  8680   0.994E-03    0.693E-03
DAV:   5    -0.161996151858E+04    0.97558E-05   -0.13703E-05  6704   0.619E-03
   8 F= -.16199615E+04 E0= -.16199657E+04  d E =-.226720E-03
       N       E                     dE             d eps       ncg     rms          rms(c)
DAV:   1    -0.161996165793E+04   -0.12959E-03   -0.15847E-02 12208   0.161E-01    0.183E-02
DAV:   2    -0.161996167388E+04   -0.15955E-04   -0.17012E-04 16456   0.223E-02    0.144E-02
DAV:   3    -0.161996166621E+04    0.76694E-05   -0.34271E-05  9904   0.121E-02    0.103E-02
DAV:   4    -0.161996167018E+04   -0.39645E-05   -0.19405E-05  6808   0.683E-03    0.219E-03
DAV:   5    -0.161996167092E+04   -0.73632E-06   -0.52006E-06  6488   0.485E-03
   9 F= -.16199617E+04 E0= -.16199659E+04  d E =-.152332E-03
       N       E                     dE             d eps       ncg     rms          rms(c)
DAV:   1    -0.161996176981E+04   -0.99636E-04   -0.10556E-02 12208   0.132E-01    0.173E-02
DAV:   2    -0.161996176127E+04    0.85493E-05   -0.11168E-04 15344   0.182E-02    0.123E-02
DAV:   3    -0.161996175291E+04    0.83549E-05   -0.29953E-05  9504   0.109E-02    0.863E-03
DAV:   4    -0.161996174399E+04    0.89163E-05   -0.11151E-05  6544   0.578E-03    0.306E-03
DAV:   5    -0.161996174130E+04    0.26978E-05   -0.43262E-06  6480   0.412E-03
  10 F= -.16199617E+04 E0= -.16199660E+04  d E =-.703813E-04
       N       E                     dE             d eps       ncg     rms          rms(c)
DAV:   1    -0.161996177302E+04   -0.29025E-04   -0.14622E-03 12208   0.524E-02    0.120E-02
DAV:   2    -0.161996177733E+04   -0.43081E-05   -0.15690E-05  6640   0.660E-03    0.626E-03
DAV:   3    -0.161996178251E+04   -0.51837E-05   -0.73955E-06  6488   0.536E-03    0.322E-03
DAV:   4    -0.161996178545E+04   -0.29405E-05   -0.34010E-06  6416   0.453E-03    0.140E-03
DAV:   5    -0.161996178751E+04   -0.20587E-05   -0.17134E-06  6408   0.236E-03
  11 F= -.16199618E+04 E0= -.16199660E+04  d E =-.462136E-04
       N       E                     dE             d eps       ncg     rms          rms(c)
DAV:   1    -0.161996184563E+04   -0.60180E-04   -0.54089E-03 12208   0.935E-02    0.103E-02
DAV:   2    -0.161996184327E+04    0.23610E-05   -0.39730E-05 10200   0.102E-02    0.737E-03
DAV:   3    -0.161996184166E+04    0.16149E-05   -0.10026E-05  7024   0.631E-03    0.548E-03
DAV:   4    -0.161996183786E+04    0.37941E-05   -0.57167E-06  6344   0.432E-03    0.114E-03
DAV:   5    -0.161996183767E+04    0.18842E-06   -0.24007E-06  6336   0.305E-03
  12 F= -.16199618E+04 E0= -.16199661E+04  d E =-.501624E-04
       N       E                     dE             d eps       ncg     rms          rms(c)
DAV:   1    -0.161996187771E+04   -0.39848E-04   -0.52308E-03 12208   0.920E-02    0.992E-03
DAV:   2    -0.161996188273E+04   -0.50187E-05   -0.37152E-05  9768   0.926E-03    0.702E-03
DAV:   3    -0.161996188428E+04   -0.15527E-05   -0.96463E-06  6544   0.565E-03    0.463E-03
DAV:   4    -0.161996188703E+04   -0.27500E-05   -0.53567E-06  6320   0.441E-03    0.803E-04
DAV:   5    -0.161996188735E+04   -0.31794E-06   -0.24062E-06  6312   0.287E-03
  13 F= -.16199619E+04 E0= -.16199661E+04  d E =-.496761E-04
       N       E                     dE             d eps       ncg     rms          rms(c)
DAV:   1    -0.161996190786E+04   -0.20830E-04   -0.57564E-04 12208   0.322E-02    0.687E-03
DAV:   2    -0.161996190060E+04    0.72612E-05   -0.68014E-06  6272   0.423E-03    0.359E-03
DAV:   3    -0.161996189735E+04    0.32459E-05   -0.29966E-06  6272   0.341E-03    0.211E-03
DAV:   4    -0.161996189510E+04    0.22550E-05   -0.14830E-06  6272   0.276E-03    0.911E-04
DAV:   5    -0.161996189389E+04    0.12061E-05   -0.83812E-07  6272   0.166E-03
  14 F= -.16199619E+04 E0= -.16199661E+04  d E =-.654416E-05
       N       E                     dE             d eps       ncg     rms          rms(c)
DAV:   1    -0.161996191947E+04   -0.24372E-04   -0.25548E-03 12208   0.642E-02    0.686E-03
DAV:   2    -0.161996192201E+04   -0.25370E-05   -0.14712E-05  6824   0.620E-03    0.481E-03
DAV:   3    -0.161996192371E+04   -0.17035E-05   -0.55221E-06  6424   0.377E-03    0.195E-03
DAV:   4    -0.161996192488E+04   -0.11734E-05   -0.27875E-06  6272   0.323E-03    0.606E-04
DAV:   5    -0.161996192493E+04   -0.47188E-07   -0.14965E-06  6272   0.222E-03
  15 F= -.16199619E+04 E0= -.16199662E+04  d E =-.310393E-04
       N       E                     dE             d eps       ncg     rms          rms(c)
DAV:   1    -0.161996195536E+04   -0.30472E-04   -0.38458E-03 12208   0.787E-02    0.825E-03
DAV:   2    -0.161996195348E+04    0.18770E-05   -0.24136E-05  8928   0.778E-03    0.583E-03
DAV:   3    -0.161996195174E+04    0.17398E-05   -0.80371E-06  6416   0.466E-03    0.310E-03
DAV:   4    -0.161996195010E+04    0.16449E-05   -0.43763E-06  6272   0.401E-03    0.734E-04
DAV:   5    -0.161996195030E+04   -0.20592E-06   -0.22976E-06  6272   0.278E-03
  16 F= -.16199620E+04 E0= -.16199662E+04  d E =-.253691E-04
       N       E                     dE             d eps       ncg     rms          rms(c)
DAV:   1    -0.161996195089E+04   -0.79024E-06   -0.12394E-04 11968   0.166E-02    0.526E-03
DAV:   2    -0.161996195429E+04   -0.34061E-05   -0.31323E-06  6272   0.276E-03    0.247E-03
DAV:   3    -0.161996195684E+04   -0.25474E-05   -0.14712E-06  6272   0.213E-03    0.133E-03
DAV:   4    -0.161996195821E+04   -0.13720E-05   -0.67703E-07  6272   0.163E-03    0.611E-04
DAV:   5    -0.161996195919E+04   -0.98339E-06   -0.36079E-07  6272   0.105E-03
  17 F= -.16199620E+04 E0= -.16199662E+04  d E =-.889320E-05
       N       E                     dE             d eps       ncg     rms          rms(c)
DAV:   1    -0.161996197924E+04   -0.21029E-04   -0.17659E-03 12208   0.534E-02    0.558E-03
DAV:   2    -0.161996197783E+04    0.14125E-05   -0.98937E-06  6304   0.509E-03    0.392E-03
DAV:   3    -0.161996197650E+04    0.13290E-05   -0.35692E-06  6272   0.293E-03    0.181E-03
DAV:   4    -0.161996197563E+04    0.86971E-06   -0.18518E-06  6272   0.249E-03    0.515E-04
DAV:   5    -0.161996197573E+04   -0.10309E-06   -0.97205E-07  6272   0.176E-03
  18 F= -.16199620E+04 E0= -.16199662E+04  d E =-.165376E-04
       N       E                     dE             d eps       ncg     rms          rms(c)
DAV:   1    -0.161996199533E+04   -0.19700E-04   -0.38362E-03 12208   0.785E-02    0.787E-03
DAV:   2    -0.161996199783E+04   -0.25014E-05   -0.22260E-05  8648   0.753E-03    0.569E-03
DAV:   3    -0.161996199935E+04   -0.15179E-05   -0.86530E-06  6408   0.427E-03    0.105E-03
DAV:   4    -0.161996200004E+04   -0.69292E-06   -0.37273E-06  6272   0.312E-03    0.667E-04
DAV:   5    -0.161996200011E+04   -0.70971E-07   -0.20340E-06  6272   0.244E-03
  19 F= -.16199620E+04 E0= -.16199662E+04  d E =-.243802E-04
       N       E                     dE             d eps       ncg     rms          rms(c)
DAV:   1    -0.161996200344E+04   -0.33947E-05   -0.15543E-04 11984   0.185E-02    0.547E-03
DAV:   2    -0.161996199707E+04    0.63638E-05   -0.24274E-06  6272   0.259E-03    0.262E-03
DAV:   3    -0.161996199374E+04    0.33332E-05   -0.12159E-06  6272   0.200E-03    0.128E-03
DAV:   4    -0.161996199225E+04    0.14880E-05   -0.49088E-07  6272   0.167E-03    0.602E-04
DAV:   5    -0.161996199124E+04    0.10109E-05   -0.23361E-07  6272   0.936E-04
  20 F= -.16199620E+04 E0= -.16199662E+04  d E =0.887222E-05
       N       E                     dE             d eps       ncg     rms          rms(c)
DAV:   1    -0.161996200278E+04   -0.10528E-04   -0.14594E-03 12208   0.486E-02    0.516E-03
DAV:   2    -0.161996200479E+04   -0.20156E-05   -0.78795E-06  6272   0.454E-03    0.357E-03
DAV:   3    -0.161996200645E+04   -0.16533E-05   -0.29286E-06  6272   0.249E-03    0.108E-03
DAV:   4    -0.161996200719E+04   -0.73818E-06   -0.13226E-06  6272   0.194E-03    0.549E-04
DAV:   5    -0.161996200723E+04   -0.43583E-07   -0.70119E-07  6272   0.149E-03
  21 F= -.16199620E+04 E0= -.16199662E+04  d E =-.159893E-04
       N       E                     dE             d eps       ncg     rms          rms(c)
DAV:   1    -0.161996201987E+04   -0.12680E-04   -0.20177E-03 12208   0.569E-02    0.568E-03
DAV:   2    -0.161996201962E+04    0.24887E-06   -0.11648E-05  6472   0.550E-03    0.413E-03
DAV:   3    -0.161996201870E+04    0.91298E-06   -0.46441E-06  6296   0.318E-03    0.101E-03
DAV:   4    -0.161996201864E+04    0.63771E-07   -0.21651E-06  6272   0.248E-03    0.579E-04
DAV:   5    -0.161996201880E+04   -0.15743E-06   -0.11899E-06  6272   0.188E-03
  22 F= -.16199620E+04 E0= -.16199663E+04  d E =-.115679E-04
       N       E                     dE             d eps       ncg     rms          rms(c)
DAV:   1    -0.161996201669E+04    0.19531E-05   -0.13627E-04 11984   0.171E-02    0.504E-03
DAV:   2    -0.161996202004E+04   -0.33566E-05   -0.27741E-06  6272   0.264E-03    0.239E-03
DAV:   3    -0.161996202255E+04   -0.25061E-05   -0.13029E-06  6272   0.203E-03    0.125E-03
DAV:   4    -0.161996202386E+04   -0.13096E-05   -0.58890E-07  6272   0.161E-03    0.585E-04
DAV:   5    -0.161996202481E+04   -0.94708E-06   -0.31304E-07  6272   0.101E-03
  23 F= -.16199620E+04 E0= -.16199663E+04  d E =-.600884E-05
       N       E                     dE             d eps       ncg     rms          rms(c)
DAV:   1    -0.161996203483E+04   -0.10971E-04   -0.41369E-04 12192   0.264E-02    0.412E-03
DAV:   2    -0.161996203154E+04    0.32937E-05   -0.30563E-06  6272   0.281E-03    0.238E-03
DAV:   3    -0.161996202961E+04    0.19222E-05   -0.12464E-06  6272   0.181E-03    0.121E-03
DAV:   4    -0.161996202855E+04    0.10597E-05   -0.58796E-07  6272   0.147E-03    0.586E-04
DAV:   5    -0.161996202804E+04    0.51291E-06   -0.31682E-07  6272   0.102E-03
  24 F= -.16199620E+04 E0= -.16199663E+04  d E =-.323576E-05
       N       E                     dE             d eps       ncg     rms          rms(c)
DAV:   1    -0.161996203339E+04   -0.48313E-05   -0.65646E-04 12208   0.324E-02    0.326E-03
DAV:   2    -0.161996203363E+04   -0.24053E-06   -0.38175E-06  6272   0.314E-03    0.238E-03
DAV:   3    -0.161996203369E+04   -0.61611E-07   -0.15714E-06  6272   0.186E-03    0.536E-04
DAV:   4    -0.161996203377E+04   -0.85920E-07   -0.72304E-07  6272   0.146E-03    0.359E-04
DAV:   5    -0.161996203379E+04   -0.20793E-07   -0.40292E-07  6272   0.108E-03
  25 F= -.16199620E+04 E0= -.16199663E+04  d E =-.575306E-05
       N       E                     dE             d eps       ncg     rms          rms(c)
DAV:   1    -0.161996205001E+04   -0.16237E-04   -0.11373E-02 12160   0.135E-01    0.134E-02
DAV:   2    -0.161996205221E+04   -0.21971E-05   -0.92021E-05 15304   0.126E-02    0.101E-02
DAV:   3    -0.161996204744E+04    0.47688E-05   -0.10257E-05  6854   0.511E-03    0.379E-03
DAV:   4    -0.161996204584E+04    0.16005E-05   -0.36406E-06  6440   0.419E-03    0.146E-03
DAV:   5    -0.161996204589E+04   -0.47933E-07   -0.12197E-06  6334   0.272E-03
  26 F= -.16199620E+04 E0= -.16199663E+04  d E =-.120921E-04
       N       E                     dE             d eps       ncg     rms          rms(c)
DAV:   1    -0.161996203577E+04    0.10065E-04   -0.42097E-03 12160   0.826E-02    0.893E-03
DAV:   2    -0.161996203888E+04   -0.31084E-05   -0.20778E-05  6792   0.757E-03    0.610E-03
DAV:   3    -0.161996204108E+04   -0.21986E-05   -0.70531E-06  6266   0.402E-03    0.220E-03
DAV:   4    -0.161996204245E+04   -0.13685E-05   -0.31263E-06  6272   0.322E-03    0.921E-04
DAV:   5    -0.161996204257E+04   -0.11825E-06   -0.15351E-06  6272   0.235E-03
  27 F= -.16199620E+04 E0= -.16199663E+04  d E =0.331916E-05
       N       E                     dE             d eps       ncg     rms          rms(c)
DAV:   1    -0.161996204926E+04   -0.68120E-05   -0.17805E-03 12184   0.536E-02    0.507E-03
DAV:   2    -0.161996204921E+04    0.51066E-07   -0.76937E-06  6272   0.457E-03    0.366E-03
DAV:   3    -0.161996204863E+04    0.58231E-06   -0.25300E-06  6260   0.230E-03    0.719E-04
DAV:   4    -0.161996204864E+04   -0.15960E-07   -0.90256E-07  6272   0.162E-03    0.520E-04
DAV:   5    -0.161996204868E+04   -0.39117E-07   -0.43729E-07  6272   0.118E-03
  28 F= -.16199620E+04 E0= -.16199663E+04  d E =-.611550E-05
       N       E                     dE             d eps       ncg     rms          rms(c)
DAV:   1    -0.161996205350E+04   -0.48547E-05   -0.19247E-03 12196   0.556E-02    0.537E-03
DAV:   2    -0.161996205328E+04    0.22374E-06   -0.10712E-05  6328   0.528E-03    0.393E-03
DAV:   3    -0.161996205232E+04    0.95992E-06   -0.42121E-06  6266   0.297E-03    0.706E-04
DAV:   4    -0.161996205234E+04   -0.23861E-07   -0.18294E-06  6272   0.216E-03    0.487E-04
DAV:   5    -0.161996205247E+04   -0.12881E-06   -0.99367E-07  6272   0.169E-03
  29 F= -.16199621E+04 E0= -.16199663E+04  d E =-.378464E-05
