       N       E                     dE             d eps       ncg     rms          rms(c)
DAV:   1     0.199242775078E+04    0.19924E+04   -0.27993E+05 11308   0.142E+03
DAV:   2    -0.118646075108E+04   -0.31789E+04   -0.30524E+04 13022   0.273E+02
DAV:   3    -0.158821308565E+04   -0.40175E+03   -0.36607E+03 17624   0.824E+01
DAV:   4    -0.161314786894E+04   -0.24935E+02   -0.22645E+02 15928   0.164E+01
DAV:   5    -0.161427578584E+04   -0.11279E+01   -0.11035E+01 17000   0.441E+00    0.384E+01
DAV:   6    -0.157647931335E+04    0.37796E+02   -0.95048E+01 17208   0.133E+01    0.221E+01
DAV:   7    -0.156874431344E+04    0.77350E+01   -0.85197E+01 17704   0.147E+01    0.178E+01
DAV:   8    -0.155708972113E+04    0.11655E+02   -0.59933E+01 16624   0.118E+01    0.105E+01
DAV:   9    -0.155128777237E+04    0.58019E+01   -0.26829E+01 16360   0.793E+00    0.311E+00
DAV:  10    -0.155114986780E+04    0.13790E+00   -0.50082E+00 16077   0.316E+00    0.147E+00
DAV:  11    -0.155115145563E+04   -0.15878E-02   -0.59832E-01 14872   0.116E+00    0.113E+00
DAV:  12    -0.155112673098E+04    0.24725E-01   -0.21418E-01 14544   0.649E-01    0.646E-01
DAV:  13    -0.155111362690E+04    0.13104E-01   -0.61094E-02 14088   0.395E-01    0.344E-01
DAV:  14    -0.155111026421E+04    0.33627E-02   -0.18193E-02 15568   0.198E-01    0.175E-01
DAV:  15    -0.155110933990E+04    0.92431E-03   -0.55261E-03 15720   0.120E-01    0.959E-02
DAV:  16    -0.155110919725E+04    0.14265E-03   -0.18164E-03 15416   0.625E-02    0.572E-02
DAV:  17    -0.155110913174E+04    0.65515E-04   -0.66494E-04 13712   0.369E-02    0.280E-02
DAV:  18    -0.155110912791E+04    0.38258E-05   -0.20529E-04 14824   0.207E-02    0.121E-02
DAV:  19    -0.155110912504E+04    0.28726E-05   -0.41234E-05  8904   0.115E-02
   1 F= -.15511091E+04 E0= -.15511047E+04  d E =-.155111E+04
       N       E                     dE             d eps       ncg     rms          rms(c)
DAV:   1    -0.155737308317E+04   -0.62640E+01   -0.24419E+03 11284   0.758E+01    0.272E+01
DAV:   2    -0.153024581239E+04    0.27127E+02   -0.17631E+02 18352   0.176E+01    0.178E+01
DAV:   3    -0.152241729530E+04    0.78285E+01   -0.97076E+01 19200   0.132E+01    0.134E+01
DAV:   4    -0.151637329013E+04    0.60440E+01   -0.35311E+01 19656   0.825E+00    0.965E+00
DAV:   5    -0.151266958782E+04    0.37037E+01   -0.24454E+01 18424   0.604E+00    0.426E+00
DAV:   6    -0.151211959478E+04    0.54999E+00   -0.67858E+00 18576   0.353E+00    0.275E+00
DAV:   7    -0.151190888221E+04    0.21071E+00   -0.14717E+00 17776   0.166E+00    0.179E+00
DAV:   8    -0.151186019431E+04    0.48688E-01   -0.41904E-01 17368   0.701E-01    0.933E-01
DAV:   9    -0.151186036067E+04   -0.16636E-03   -0.23380E-01 17712   0.471E-01    0.445E-01
DAV:  10    -0.151186371609E+04   -0.33554E-02   -0.47880E-02 17544   0.304E-01    0.390E-01
DAV:  11    -0.151185819498E+04    0.55211E-02   -0.21576E-02 18192   0.209E-01    0.192E-01
DAV:  12    -0.151185754949E+04    0.64549E-03   -0.11456E-02 18072   0.120E-01    0.907E-02
DAV:  13    -0.151185804942E+04   -0.49994E-03   -0.25529E-03 16776   0.587E-02    0.566E-02
DAV:  14    -0.151185822547E+04   -0.17604E-03   -0.10310E-03 18608   0.446E-02    0.432E-02
DAV:  15    -0.151185821033E+04    0.15134E-04   -0.40711E-04 18712   0.275E-02    0.297E-02
DAV:  16    -0.151185819006E+04    0.20275E-04   -0.13960E-04 15960   0.144E-02    0.137E-02
DAV:  17    -0.151185819309E+04   -0.30299E-05   -0.36252E-05  7776   0.870E-03
   2 F= -.15118582E+04 E0= -.15118636E+04  d E =0.392509E+02
       N       E                     dE             d eps       ncg     rms          rms(c)
DAV:   1    -0.158170603347E+04   -0.69848E+02   -0.12018E+03 11284   0.589E+01    0.187E+01
DAV:   2    -0.156745597537E+04    0.14250E+02   -0.47112E+01 17008   0.107E+01    0.963E+00
DAV:   3    -0.156497937635E+04    0.24766E+01   -0.27620E+01 18000   0.778E+00    0.765E+00
DAV:   4    -0.156255939637E+04    0.24200E+01   -0.12256E+01 17760   0.546E+00    0.496E+00
DAV:   5    -0.156131551887E+04    0.12439E+01   -0.66676E+00 16424   0.379E+00    0.169E+00
DAV:   6    -0.156123211018E+04    0.83409E-01   -0.15051E+00 15360   0.179E+00    0.848E-01
DAV:   7    -0.156124164768E+04   -0.95375E-02   -0.22024E-01 14784   0.704E-01    0.669E-01
DAV:   8    -0.156124355515E+04   -0.19075E-02   -0.54085E-02 15568   0.320E-01    0.375E-01
DAV:   9    -0.156125567240E+04   -0.12117E-01   -0.53698E-02 16432   0.258E-01    0.245E-01
DAV:  10    -0.156125546908E+04    0.20332E-03   -0.92618E-03 15592   0.161E-01    0.143E-01
DAV:  11    -0.156125513591E+04    0.33317E-03   -0.36559E-03 16928   0.822E-02    0.703E-02
DAV:  12    -0.156125532959E+04   -0.19368E-03   -0.17895E-03 16496   0.549E-02    0.448E-02
DAV:  13    -0.156125558387E+04   -0.25428E-03   -0.60516E-04 14152   0.343E-02    0.304E-02
DAV:  14    -0.156125558274E+04    0.11328E-05   -0.14142E-04 13632   0.168E-02    0.154E-02
DAV:  15    -0.156125557613E+04    0.66100E-05   -0.29106E-05  7208   0.854E-03
   3 F= -.15612556E+04 E0= -.15612699E+04  d E =-.493974E+02
       N       E                     dE             d eps       ncg     rms          rms(c)
DAV:   1    -0.156161659199E+04   -0.36101E+00   -0.27818E+01 11284   0.731E+00    0.112E+00
DAV:   2    -0.156160377398E+04    0.12818E-01   -0.45042E-01 16288   0.793E-01    0.669E-01
DAV:   3    -0.156159933014E+04    0.44438E-02   -0.10204E-01 18464   0.492E-01    0.568E-01
DAV:   4    -0.156158552130E+04    0.13809E-01   -0.50309E-02 17552   0.350E-01    0.308E-01
DAV:   5    -0.156158202010E+04    0.35012E-02   -0.24696E-02 15248   0.224E-01    0.125E-01
DAV:   6    -0.156158177270E+04    0.24740E-03   -0.62792E-03 15288   0.124E-01    0.776E-02
DAV:   7    -0.156158170432E+04    0.68379E-04   -0.15016E-03 15904   0.644E-02    0.566E-02
DAV:   8    -0.156158164150E+04    0.62816E-04   -0.49576E-04 15800   0.336E-02    0.313E-02
DAV:   9    -0.156158166292E+04   -0.21419E-04   -0.22188E-04 15576   0.195E-02    0.183E-02
DAV:  10    -0.156158166649E+04   -0.35638E-05   -0.54260E-05 10792   0.135E-02
   4 F= -.15615817E+04 E0= -.15615951E+04  d E =-.326090E+00
       N       E                     dE             d eps       ncg     rms          rms(c)
DAV:   1    -0.156163785726E+04   -0.56194E-01   -0.46013E+00 11284   0.288E+00    0.474E-01
DAV:   2    -0.156164067205E+04   -0.28148E-02   -0.11992E-01 17744   0.495E-01    0.377E-01
DAV:   3    -0.156163403197E+04    0.66401E-02   -0.40537E-02 18160   0.324E-01    0.232E-01
DAV:   4    -0.156163205974E+04    0.19722E-02   -0.95083E-03 17856   0.140E-01    0.151E-01
DAV:   5    -0.156163132124E+04    0.73850E-03   -0.39605E-03 15968   0.932E-02    0.851E-02
DAV:   6    -0.156163109559E+04    0.22564E-03   -0.18886E-03 15672   0.702E-02    0.485E-02
DAV:   7    -0.156163098920E+04    0.10639E-03   -0.58555E-04 15336   0.404E-02    0.256E-02
DAV:   8    -0.156163098892E+04    0.28152E-06   -0.14006E-04 14344   0.162E-02    0.158E-02
DAV:   9    -0.156163099347E+04   -0.45475E-05   -0.44240E-05  9312   0.966E-03
   5 F= -.15616310E+04 E0= -.15616431E+04  d E =-.493270E-01
       N       E                     dE             d eps       ncg     rms          rms(c)
DAV:   1    -0.156164890208E+04   -0.17913E-01   -0.18816E+00 11284   0.184E+00    0.231E-01
DAV:   2    -0.156165085793E+04   -0.19558E-02   -0.30853E-02 17056   0.235E-01    0.199E-01
DAV:   3    -0.156164925227E+04    0.16057E-02   -0.83217E-03 18008   0.148E-01    0.126E-01
DAV:   4    -0.156164892161E+04    0.33066E-03   -0.23149E-03 16008   0.680E-02    0.828E-02
DAV:   5    -0.156164874081E+04    0.18079E-03   -0.13284E-03 15016   0.547E-02    0.351E-02
DAV:   6    -0.156164873299E+04    0.78240E-05   -0.42960E-04 15920   0.347E-02    0.221E-02
DAV:   7    -0.156164871664E+04    0.16347E-04   -0.13427E-04 14560   0.192E-02    0.118E-02
DAV:   8    -0.156164871081E+04    0.58296E-05   -0.23917E-05  7032   0.824E-03
   6 F= -.15616487E+04 E0= -.15616605E+04  d E =-.177173E-01
       N       E                     dE             d eps       ncg     rms          rms(c)
DAV:   1    -0.156165807044E+04   -0.93538E-02   -0.49666E-01 11360   0.982E-01    0.206E-01
DAV:   2    -0.156165771460E+04    0.35584E-03   -0.15491E-02 17952   0.192E-01    0.159E-01
DAV:   3    -0.156165645803E+04    0.12566E-02   -0.70448E-03 18192   0.135E-01    0.970E-02
DAV:   4    -0.156165604041E+04    0.41762E-03   -0.17642E-03 16720   0.601E-02    0.607E-02
DAV:   5    -0.156165585359E+04    0.18681E-03   -0.78187E-04 15808   0.435E-02    0.321E-02
DAV:   6    -0.156165579312E+04    0.60471E-04   -0.31427E-04 15616   0.295E-02    0.185E-02
DAV:   7    -0.156165577398E+04    0.19139E-04   -0.88209E-05 13472   0.159E-02    0.100E-02
DAV:   8    -0.156165577578E+04   -0.17984E-05   -0.18684E-05  6648   0.685E-03
   7 F= -.15616558E+04 E0= -.15616670E+04  d E =-.706497E-02
       N       E                     dE             d eps       ncg     rms          rms(c)
DAV:   1    -0.156166055893E+04   -0.47850E-02   -0.40499E-01 11314   0.852E-01    0.104E-01
DAV:   2    -0.156166117466E+04   -0.61572E-03   -0.65227E-03 17408   0.115E-01    0.103E-01
DAV:   3    -0.156166065560E+04    0.51906E-03   -0.21214E-03 18072   0.753E-02    0.576E-02
DAV:   4    -0.156166061566E+04    0.39940E-04   -0.48881E-04 16112   0.310E-02    0.384E-02
DAV:   5    -0.156166059465E+04    0.21008E-04   -0.28468E-04 15208   0.259E-02    0.164E-02
DAV:   6    -0.156166059374E+04    0.91285E-06   -0.87574E-05 13736   0.164E-02
   8 F= -.15616606E+04 E0= -.15616717E+04  d E =-.481796E-02
       N       E                     dE             d eps       ncg     rms          rms(c)
DAV:   1    -0.156166308147E+04   -0.24868E-02   -0.21378E-01 11360   0.616E-01    0.898E-02
DAV:   2    -0.156166339450E+04   -0.31302E-03   -0.46731E-03 18048   0.105E-01    0.901E-02
DAV:   3    -0.156166292323E+04    0.47126E-03   -0.19049E-03 18109   0.707E-02    0.456E-02
DAV:   4    -0.156166285193E+04    0.71304E-04   -0.34720E-04 16072   0.259E-02    0.312E-02
DAV:   5    -0.156166280945E+04    0.42477E-04   -0.16417E-04 15480   0.203E-02    0.178E-02
DAV:   6    -0.156166279000E+04    0.19457E-04   -0.74120E-05 13440   0.152E-02    0.957E-03
DAV:   7    -0.156166278405E+04    0.59497E-05   -0.20455E-05  6888   0.863E-03
   9 F= -.15616628E+04 E0= -.15616736E+04  d E =-.219031E-02
       N       E                     dE             d eps       ncg     rms          rms(c)
DAV:   1    -0.156166389690E+04   -0.11069E-02   -0.84838E-02 11360   0.393E-01    0.530E-02
DAV:   2    -0.156166399867E+04   -0.10177E-03   -0.11959E-03 17112   0.494E-02    0.468E-02
DAV:   3    -0.156166390934E+04    0.89327E-04   -0.42004E-04 18034   0.336E-02    0.285E-02
DAV:   4    -0.156166390790E+04    0.14391E-05   -0.10574E-04 13784   0.150E-02    0.154E-02
DAV:   5    -0.156166391273E+04   -0.48251E-05   -0.47192E-05  9992   0.123E-02
  10 F= -.15616639E+04 E0= -.15616748E+04  d E =-.112868E-02
       N       E                     dE             d eps       ncg     rms          rms(c)
DAV:   1    -0.156166481404E+04   -0.90614E-03   -0.59399E-02 11350   0.326E-01    0.483E-02
DAV:   2    -0.156166486422E+04   -0.50179E-04   -0.11660E-03 17840   0.528E-02    0.464E-02
DAV:   3    -0.156166474229E+04    0.12193E-03   -0.48367E-04 17992   0.359E-02    0.247E-02
DAV:   4    -0.156166471554E+04    0.26753E-04   -0.91447E-05 13664   0.137E-02    0.163E-02
DAV:   5    -0.156166469729E+04    0.18247E-04   -0.39724E-05  9272   0.113E-02    0.888E-03
DAV:   6    -0.156166468905E+04    0.82369E-05   -0.14900E-05  7048   0.855E-03
  11 F= -.15616647E+04 E0= -.15616754E+04  d E =-.776326E-03
       N       E                     dE             d eps       ncg     rms          rms(c)
DAV:   1    -0.156166527858E+04   -0.58129E-03   -0.57663E-02 11343   0.317E-01    0.330E-02
DAV:   2    -0.156166537070E+04   -0.92112E-04   -0.73227E-04 17296   0.387E-02    0.355E-02
DAV:   3    -0.156166531087E+04    0.59830E-04   -0.22057E-04 16700   0.248E-02    0.198E-02
DAV:   4    -0.156166531207E+04   -0.11997E-05   -0.46416E-05  9960   0.103E-02    0.120E-02
DAV:   5    -0.156166531515E+04   -0.30856E-05   -0.20418E-05  7135   0.890E-03
  12 F= -.15616653E+04 E0= -.15616760E+04  d E =-.626098E-03
       N       E                     dE             d eps       ncg     rms          rms(c)
DAV:   1    -0.156166569530E+04   -0.38323E-03   -0.26427E-02 11350   0.217E-01    0.302E-02
DAV:   2    -0.156166569962E+04   -0.43257E-05   -0.44704E-04 17496   0.315E-02    0.273E-02
DAV:   3    -0.156166565930E+04    0.40325E-04   -0.16215E-04 16256   0.214E-02    0.157E-02
DAV:   4    -0.156166564545E+04    0.13842E-04   -0.30840E-05  8040   0.906E-03    0.995E-03
DAV:   5    -0.156166563529E+04    0.10161E-04   -0.16235E-05  6584   0.748E-03    0.540E-03
DAV:   6    -0.156166563090E+04    0.43977E-05   -0.63947E-06  6360   0.570E-03
  13 F= -.15616656E+04 E0= -.15616763E+04  d E =-.315743E-03
       N       E                     dE             d eps       ncg     rms          rms(c)
DAV:   1    -0.156166589824E+04   -0.26295E-03   -0.18989E-02 11367   0.183E-01    0.209E-02
DAV:   2    -0.156166592189E+04   -0.23647E-04   -0.20165E-04 16528   0.188E-02    0.173E-02
DAV:   3    -0.156166591351E+04    0.83773E-05   -0.35632E-05  9010   0.113E-02    0.120E-02
DAV:   4    -0.156166591925E+04   -0.57462E-05   -0.18294E-05  6432   0.711E-03    0.557E-03
DAV:   5    -0.156166592312E+04   -0.38623E-05   -0.75685E-06  6336   0.569E-03
  14 F= -.15616659E+04 E0= -.15616766E+04  d E =-.292222E-03
       N       E                     dE             d eps       ncg     rms          rms(c)
DAV:   1    -0.156166619085E+04   -0.27159E-03   -0.22583E-02 11356   0.198E-01    0.211E-02
DAV:   2    -0.156166620858E+04   -0.17731E-04   -0.27294E-04 17280   0.244E-02    0.216E-02
DAV:   3    -0.156166618454E+04    0.24044E-04   -0.81397E-05 13456   0.158E-02    0.124E-02
DAV:   4    -0.156166617799E+04    0.65496E-05   -0.17193E-05  6592   0.708E-03    0.772E-03
DAV:   5    -0.156166617288E+04    0.51036E-05   -0.95311E-06  6368   0.643E-03
  15 F= -.15616662E+04 E0= -.15616768E+04  d E =-.249765E-03
       N       E                     dE             d eps       ncg     rms          rms(c)
DAV:   1    -0.156166636936E+04   -0.19138E-03   -0.19159E-02 11356   0.182E-01    0.178E-02
DAV:   2    -0.156166639072E+04   -0.21362E-04   -0.18351E-04 16272   0.177E-02    0.153E-02
DAV:   3    -0.156166638474E+04    0.59899E-05   -0.23657E-05  7952   0.973E-03    0.110E-02
DAV:   4    -0.156166638898E+04   -0.42488E-05   -0.16137E-05  6296   0.631E-03    0.433E-03
DAV:   5    -0.156166639153E+04   -0.25457E-05   -0.63531E-06  6208   0.540E-03
  16 F= -.15616664E+04 E0= -.15616770E+04  d E =-.218648E-03
       N       E                     dE             d eps       ncg     rms          rms(c)
DAV:   1    -0.156166652656E+04   -0.13757E-03   -0.75433E-03 11356   0.116E-01    0.151E-02
DAV:   2    -0.156166651951E+04    0.70461E-05   -0.90888E-05 14048   0.145E-02    0.123E-02
DAV:   3    -0.156166651111E+04    0.83965E-05   -0.26032E-05  8040   0.997E-03    0.782E-03
DAV:   4    -0.156166650554E+04    0.55750E-05   -0.97057E-06  6128   0.533E-03    0.472E-03
DAV:   5    -0.156166650085E+04    0.46856E-05   -0.53871E-06  6080   0.445E-03
  17 F= -.15616665E+04 E0= -.15616771E+04  d E =-.109324E-03
       N       E                     dE             d eps       ncg     rms          rms(c)
DAV:   1    -0.156166662966E+04   -0.12412E-03   -0.10724E-02 11356   0.136E-01    0.134E-02
DAV:   2    -0.156166664180E+04   -0.12143E-04   -0.98246E-05 14864   0.130E-02    0.112E-02
DAV:   3    -0.156166663959E+04    0.22141E-05   -0.12917E-05  7000   0.727E-03    0.840E-03
DAV:   4    -0.156166664310E+04   -0.35069E-05   -0.90581E-06  6080   0.483E-03    0.287E-03
DAV:   5    -0.156166664442E+04   -0.13288E-05   -0.33860E-06  6056   0.390E-03
  18 F= -.15616666E+04 E0= -.15616773E+04  d E =-.143570E-03
       N       E                     dE             d eps       ncg     rms          rms(c)
DAV:   1    -0.156166678180E+04   -0.13870E-03   -0.13192E-02 11356   0.151E-01    0.145E-02
DAV:   2    -0.156166678505E+04   -0.32535E-05   -0.12647E-04 15648   0.150E-02    0.124E-02
DAV:   3    -0.156166677948E+04    0.55697E-05   -0.17208E-05  7480   0.852E-03    0.901E-03
DAV:   4    -0.156166677512E+04    0.43557E-05   -0.96449E-06  6176   0.513E-03    0.489E-03
DAV:   5    -0.156166677219E+04    0.29308E-05   -0.52620E-06  6088   0.463E-03
  19 F= -.15616668E+04 E0= -.15616774E+04  d E =-.127769E-03
       N       E                     dE             d eps       ncg     rms          rms(c)
DAV:   1    -0.156166683863E+04   -0.63509E-04   -0.43595E-03 11356   0.876E-02    0.963E-03
DAV:   2    -0.156166684515E+04   -0.65137E-05   -0.27106E-05  7824   0.852E-03    0.686E-03
DAV:   3    -0.156166684638E+04   -0.12379E-05   -0.10021E-05  6344   0.589E-03    0.514E-03
DAV:   4    -0.156166685055E+04   -0.41695E-05   -0.60005E-06  6056   0.429E-03    0.199E-03
DAV:   5    -0.156166685220E+04   -0.16429E-05   -0.32375E-06  6056   0.319E-03
  20 F= -.15616669E+04 E0= -.15616775E+04  d E =-.800036E-04
       N       E                     dE             d eps       ncg     rms          rms(c)
DAV:   1    -0.156166694102E+04   -0.90467E-04   -0.65213E-03 11356   0.106E-01    0.115E-02
DAV:   2    -0.156166693783E+04    0.31918E-05   -0.66066E-05 12184   0.105E-02    0.841E-03
DAV:   3    -0.156166693555E+04    0.22769E-05   -0.10657E-05  6512   0.620E-03    0.652E-03
DAV:   4    -0.156166693198E+04    0.35677E-05   -0.46821E-06  6056   0.404E-03    0.371E-03
DAV:   5    -0.156166692906E+04    0.29280E-05   -0.28339E-06  6056   0.319E-03
  21 F= -.15616669E+04 E0= -.15616775E+04  d E =-.768600E-04
       N       E                     dE             d eps       ncg     rms          rms(c)
DAV:   1    -0.156166699182E+04   -0.59832E-04   -0.46494E-03 11356   0.895E-02    0.838E-03
DAV:   2    -0.156166699619E+04   -0.43750E-05   -0.27098E-05  7984   0.804E-03    0.632E-03
DAV:   3    -0.156166699708E+04   -0.88683E-06   -0.92776E-06  6168   0.507E-03    0.484E-03
DAV:   4    -0.156166699999E+04   -0.29134E-05   -0.62160E-06  6008   0.400E-03    0.107E-03
DAV:   5    -0.156166700040E+04   -0.40742E-06   -0.28572E-06  6008   0.291E-03
  22 F= -.15616670E+04 E0= -.15616776E+04  d E =-.713429E-04
       N       E                     dE             d eps       ncg     rms          rms(c)
DAV:   1    -0.156166708659E+04   -0.86593E-04   -0.93939E-03 11344   0.127E-01    0.124E-02
DAV:   2    -0.156166708668E+04   -0.93381E-07   -0.94227E-05 14952   0.117E-02    0.926E-03
DAV:   3    -0.156166708427E+04    0.24063E-05   -0.77207E-06  6354   0.547E-03    0.724E-03
DAV:   4    -0.156166708058E+04    0.36954E-05   -0.47653E-06  6056   0.433E-03    0.376E-03
DAV:   5    -0.156166707805E+04    0.25304E-05   -0.27721E-06  5981   0.333E-03
  23 F= -.15616671E+04 E0= -.15616776E+04  d E =-.776469E-04
       N       E                     dE             d eps       ncg     rms          rms(c)
DAV:   1    -0.156166708769E+04   -0.71107E-05   -0.21732E-04 11296   0.216E-02    0.487E-03
DAV:   2    -0.156166709173E+04   -0.40393E-05   -0.31870E-06  5888   0.322E-03    0.295E-03
DAV:   3    -0.156166709262E+04   -0.89424E-06   -0.13138E-06  5888   0.286E-03    0.217E-03
DAV:   4    -0.156166709501E+04   -0.23924E-05   -0.81667E-07  5888   0.171E-03    0.897E-04
DAV:   5    -0.156166709613E+04   -0.11202E-05   -0.39857E-07  5888   0.117E-03
  24 F= -.15616671E+04 E0= -.15616777E+04  d E =-.180873E-04
       N       E                     dE             d eps       ncg     rms          rms(c)
DAV:   1    -0.156166716040E+04   -0.65387E-04   -0.63575E-03 11338   0.104E-01    0.938E-03
DAV:   2    -0.156166716179E+04   -0.13846E-05   -0.45824E-05 10440   0.898E-03    0.723E-03
DAV:   3    -0.156166716135E+04    0.43662E-06   -0.81389E-06  6154   0.492E-03    0.552E-03
DAV:   4    -0.156166715971E+04    0.16400E-05   -0.45718E-06  5960   0.370E-03    0.175E-03
DAV:   5    -0.156166715949E+04    0.22357E-06   -0.20404E-06  5943   0.266E-03
  25 F= -.15616672E+04 E0= -.15616777E+04  d E =-.633512E-04
       N       E                     dE             d eps       ncg     rms          rms(c)
DAV:   1    -0.156166727411E+04   -0.11441E-03   -0.38911E-02 11308   0.258E-01    0.229E-02
DAV:   2    -0.156166730035E+04   -0.26232E-04   -0.33597E-04 16664   0.218E-02    0.176E-02
DAV:   3    -0.156166729927E+04    0.10725E-05   -0.18597E-05  7569   0.810E-03    0.124E-02
DAV:   4    -0.156166729856E+04    0.71312E-06   -0.15281E-05  7064   0.819E-03    0.390E-03
DAV:   5    -0.156166729925E+04   -0.68972E-06   -0.55107E-06  6120   0.509E-03
  26 F= -.15616673E+04 E0= -.15616779E+04  d E =-.139765E-03
       N       E                     dE             d eps       ncg     rms          rms(c)
DAV:   1    -0.156166725772E+04    0.40844E-04   -0.81472E-03 11332   0.119E-01    0.135E-02
DAV:   2    -0.156166724879E+04    0.89220E-05   -0.59119E-05 11720   0.104E-02    0.924E-03
DAV:   3    -0.156166724498E+04    0.38096E-05   -0.10164E-05  6066   0.606E-03    0.711E-03
DAV:   4    -0.156166723836E+04    0.66285E-05   -0.51045E-06  5936   0.466E-03    0.302E-03
DAV:   5    -0.156166723557E+04    0.27812E-05   -0.26211E-06  5840   0.323E-03
  27 F= -.15616672E+04 E0= -.15616778E+04  d E =0.636752E-04
       N       E                     dE             d eps       ncg     rms          rms(c)
DAV:   1    -0.156166729406E+04   -0.55708E-04   -0.83526E-03 11332   0.120E-01    0.105E-02
DAV:   2    -0.156166729816E+04   -0.40913E-05   -0.54948E-05 11392   0.100E-02    0.822E-03
DAV:   3    -0.156166729799E+04    0.16316E-06   -0.75388E-06  5999   0.504E-03    0.643E-03
DAV:   4    -0.156166729816E+04   -0.16305E-06   -0.58641E-06  5912   0.399E-03    0.158E-03
DAV:   5    -0.156166729829E+04   -0.13360E-06   -0.16860E-06  5912   0.261E-03
  28 F= -.15616673E+04 E0= -.15616779E+04  d E =-.627142E-04
       N       E                     dE             d eps       ncg     rms          rms(c)
DAV:   1    -0.156166740075E+04   -0.10259E-03   -0.50007E-02 11302   0.293E-01    0.256E-02
DAV:   2    -0.156166742449E+04   -0.23740E-04   -0.42965E-04 16672   0.249E-02    0.201E-02
DAV:   3    -0.156166741917E+04    0.53238E-05   -0.24733E-05  8193   0.945E-03    0.160E-02
DAV:   4    -0.156166740926E+04    0.99022E-05   -0.22593E-05  7040   0.860E-03    0.541E-03
DAV:   5    -0.156166740747E+04    0.17900E-05   -0.83332E-06  6157   0.613E-03
  29 F= -.15616674E+04 E0= -.15616779E+04  d E =-.109185E-03
       N       E                     dE             d eps       ncg     rms          rms(c)
DAV:   1    -0.156166734048E+04    0.68781E-04   -0.17833E-02 11326   0.176E-01    0.182E-02
DAV:   2    -0.156166735221E+04   -0.11728E-04   -0.14263E-04 15672   0.153E-02    0.134E-02
DAV:   3    -0.156166735138E+04    0.83194E-06   -0.13349E-05  7029   0.737E-03    0.107E-02
DAV:   4    -0.156166735251E+04   -0.11288E-05   -0.10148E-05  5944   0.592E-03    0.468E-03
DAV:   5    -0.156166735495E+04   -0.24378E-05   -0.47927E-06  5768   0.434E-03
  30 F= -.15616674E+04 E0= -.15616779E+04  d E =0.525285E-04
       N       E                     dE             d eps       ncg     rms          rms(c)
DAV:   1    -0.156166741497E+04   -0.62458E-04   -0.12925E-02 11326   0.149E-01    0.137E-02
DAV:   2    -0.156166741669E+04   -0.17238E-05   -0.98255E-05 14776   0.126E-02    0.106E-02
DAV:   3    -0.156166741440E+04    0.22914E-05   -0.78057E-06  6034   0.562E-03    0.843E-03
DAV:   4    -0.156166740924E+04    0.51550E-05   -0.76038E-06  5888   0.479E-03    0.231E-03
DAV:   5    -0.156166740853E+04    0.70789E-06   -0.23407E-06  5864   0.332E-03
  31 F= -.15616674E+04 E0= -.15616780E+04  d E =-.535894E-04
       N       E                     dE             d eps       ncg     rms          rms(c)
DAV:   1    -0.156166744549E+04   -0.36251E-04   -0.10388E-02 11326   0.133E-01    0.113E-02
DAV:   2    -0.156166745245E+04   -0.69599E-05   -0.88731E-05 14608   0.114E-02    0.896E-03
DAV:   3    -0.156166745203E+04    0.41998E-06   -0.61933E-06  6109   0.477E-03    0.699E-03
DAV:   4    -0.156166745155E+04    0.48100E-06   -0.51503E-06  5864   0.408E-03    0.191E-03
DAV:   5    -0.156166745172E+04   -0.17040E-06   -0.16728E-06  5864   0.270E-03
  32 F= -.15616675E+04 E0= -.15616780E+04  d E =-.431885E-04
       N       E                     dE             d eps       ncg     rms          rms(c)
DAV:   1    -0.156166746627E+04   -0.14716E-04   -0.10011E-03 11344   0.433E-02    0.707E-03
DAV:   2    -0.156166745859E+04    0.76836E-05   -0.96617E-06  5792   0.513E-03    0.379E-03
DAV:   3    -0.156166745631E+04    0.22759E-05   -0.38938E-06  5789   0.419E-03    0.288E-03
DAV:   4    -0.156166745394E+04    0.23741E-05   -0.16866E-06  5768   0.282E-03    0.154E-03
DAV:   5    -0.156166745212E+04    0.18111E-05   -0.10775E-06  5768   0.184E-03
  33 F= -.15616675E+04 E0= -.15616780E+04  d E =-.401094E-06
       N       E                     dE             d eps       ncg     rms          rms(c)
DAV:   1    -0.156166745710E+04   -0.31648E-05   -0.28441E-04 11350   0.241E-02    0.514E-03
DAV:   2    -0.156166746063E+04   -0.35270E-05   -0.37772E-06  5759   0.323E-03    0.275E-03
DAV:   3    -0.156166746204E+04   -0.14147E-05   -0.17379E-06  5753   0.287E-03    0.226E-03
DAV:   4    -0.156166746351E+04   -0.14716E-05   -0.79447E-07  5759   0.186E-03    0.107E-03
DAV:   5    -0.156166746484E+04   -0.13283E-05   -0.47080E-07  5759   0.116E-03
  34 F= -.15616675E+04 E0= -.15616780E+04  d E =-.127175E-04
       N       E                     dE             d eps       ncg     rms          rms(c)
DAV:   1    -0.156166747540E+04   -0.11891E-04   -0.99087E-04 11332   0.411E-02    0.375E-03
DAV:   2    -0.156166747555E+04   -0.14088E-06   -0.56122E-06  5799   0.360E-03    0.280E-03
DAV:   3    -0.156166747556E+04   -0.12918E-07   -0.21174E-06  5753   0.222E-03    0.195E-03
DAV:   4    -0.156166747539E+04    0.16388E-06   -0.13277E-06  5759   0.194E-03    0.479E-04
DAV:   5    -0.156166747543E+04   -0.36346E-07   -0.66620E-07  5759   0.136E-03
  35 F= -.15616675E+04 E0= -.15616780E+04  d E =-.105889E-04
       N       E                     dE             d eps       ncg     rms          rms(c)
DAV:   1    -0.156166750795E+04   -0.32559E-04   -0.29619E-02 11302   0.225E-01    0.196E-02
DAV:   2    -0.156166752497E+04   -0.17016E-04   -0.25116E-04 16640   0.189E-02    0.152E-02
DAV:   3    -0.156166752243E+04    0.25407E-05   -0.13902E-05  7239   0.697E-03    0.998E-03
DAV:   4    -0.156166752010E+04    0.23326E-05   -0.11626E-05  6776   0.708E-03    0.311E-03
DAV:   5    -0.156166751978E+04    0.31591E-06   -0.35001E-06  6048   0.403E-03
  36 F= -.15616675E+04 E0= -.15616781E+04  d E =-.443502E-04
       N       E                     dE             d eps       ncg     rms          rms(c)
DAV:   1    -0.156166751382E+04    0.62730E-05   -0.24332E-03 11326   0.650E-02    0.722E-03
DAV:   2    -0.156166750964E+04    0.41844E-05   -0.12408E-05  5828   0.574E-03    0.507E-03
DAV:   3    -0.156166750847E+04    0.11720E-05   -0.41221E-06  5798   0.371E-03    0.399E-03
DAV:   4    -0.156166750531E+04    0.31581E-05   -0.25862E-06  5753   0.274E-03    0.146E-03
DAV:   5    -0.156166750446E+04    0.85035E-06   -0.12408E-06  5759   0.195E-03
  37 F= -.15616675E+04 E0= -.15616780E+04  d E =0.153220E-04
       N       E                     dE             d eps       ncg     rms          rms(c)
DAV:   1    -0.156166751412E+04   -0.88062E-05   -0.26590E-03 11332   0.677E-02    0.608E-03
DAV:   2    -0.156166751614E+04   -0.20289E-05   -0.12181E-05  5806   0.555E-03    0.445E-03
DAV:   3    -0.156166751676E+04   -0.61550E-06   -0.37112E-06  5795   0.312E-03    0.336E-03
DAV:   4    -0.156166751798E+04   -0.12164E-05   -0.24064E-06  5750   0.263E-03    0.998E-04
DAV:   5    -0.156166751830E+04   -0.32242E-06   -0.11241E-06  5750   0.179E-03
  38 F= -.15616675E+04 E0= -.15616781E+04  d E =-.138397E-04
       N       E                     dE             d eps       ncg     rms          rms(c)
DAV:   1    -0.156166752309E+04   -0.51124E-05   -0.95770E-04 11332   0.404E-02    0.357E-03
DAV:   2    -0.156166752300E+04    0.87301E-07   -0.61257E-06  5757   0.375E-03    0.270E-03
DAV:   3    -0.156166752297E+04    0.29360E-07   -0.23404E-06  5738   0.237E-03    0.198E-03
DAV:   4    -0.156166752262E+04    0.35545E-06   -0.14257E-06  5741   0.194E-03    0.700E-04
DAV:   5    -0.156166752258E+04    0.35525E-07   -0.78439E-07  5741   0.150E-03
  39 F= -.15616675E+04 E0= -.15616781E+04  d E =-.428235E-05
       N       E                     dE             d eps       ncg     rms          rms(c)
DAV:   1    -0.156166751829E+04    0.43217E-05   -0.35315E-04 11284   0.250E-02    0.296E-03
DAV:   2    -0.156166751997E+04   -0.16752E-05   -0.17145E-06  5741   0.221E-03    0.186E-03
DAV:   3    -0.156166752063E+04   -0.65547E-06   -0.53106E-07  5732   0.145E-03    0.141E-03
DAV:   4    -0.156166752133E+04   -0.70120E-06   -0.25423E-07  5741   0.106E-03    0.738E-04
DAV:   5    -0.156166752189E+04   -0.56608E-06   -0.14648E-07  5741   0.699E-04
  40 F= -.15616675E+04 E0= -.15616781E+04  d E =0.688277E-06
       N       E                     dE             d eps       ncg     rms          rms(c)
DAV:   1    -0.156166752674E+04   -0.54130E-05   -0.68459E-04 11332   0.343E-02    0.302E-03
DAV:   2    -0.156166752625E+04    0.49217E-06   -0.33304E-06  5732   0.288E-03    0.224E-03
DAV:   3    -0.156166752608E+04    0.16333E-06   -0.10707E-06  5729   0.164E-03    0.172E-03
DAV:   4    -0.156166752550E+04    0.58276E-06   -0.67264E-07  5732   0.133E-03    0.463E-04
DAV:   5    -0.156166752543E+04    0.69803E-07   -0.32568E-07  5732   0.932E-04
  41 F= -.15616675E+04 E0= -.15616781E+04  d E =-.353881E-05
       N       E                     dE             d eps       ncg     rms          rms(c)
DAV:   1    -0.156166753008E+04   -0.45744E-05   -0.17672E-03 11326   0.549E-02    0.477E-03
DAV:   2    -0.156166753079E+04   -0.71297E-06   -0.97301E-06  6157   0.474E-03    0.357E-03
DAV:   3    -0.156166753107E+04   -0.28320E-06   -0.36443E-06  5834   0.282E-03    0.234E-03
DAV:   4    -0.156166753123E+04   -0.15922E-06   -0.21572E-06  5765   0.243E-03    0.609E-04
DAV:   5    -0.156166753131E+04   -0.74826E-07   -0.10849E-06  5765   0.163E-03
  42 F= -.15616675E+04 E0= -.15616781E+04  d E =-.587446E-05
       N       E                     dE             d eps       ncg     rms          rms(c)
DAV:   1    -0.156166753410E+04   -0.28732E-05   -0.52278E-05 10582   0.110E-02    0.288E-03
DAV:   2    -0.156166753105E+04    0.30587E-05   -0.15661E-06  5741   0.215E-03    0.136E-03
DAV:   3    -0.156166752997E+04    0.10780E-05   -0.63214E-07  5741   0.176E-03    0.101E-03
DAV:   4    -0.156166752911E+04    0.86197E-06   -0.28661E-07  5741   0.111E-03    0.579E-04
DAV:   5    -0.156166752845E+04    0.66034E-06   -0.17832E-07  5741   0.797E-04
  43 F= -.15616675E+04 E0= -.15616781E+04  d E =0.286064E-05
       N       E                     dE             d eps       ncg     rms          rms(c)
DAV:   1    -0.156166752792E+04    0.11821E-05   -0.42025E-05 10006   0.933E-03    0.198E-03
DAV:   2    -0.156166752961E+04   -0.16884E-05   -0.99793E-07  5741   0.168E-03    0.105E-03
DAV:   3    -0.156166753016E+04   -0.54553E-06   -0.31687E-07  5741   0.119E-03    0.885E-04
DAV:   4    -0.156166753082E+04   -0.65914E-06   -0.13914E-07  5741   0.753E-04    0.422E-04
DAV:   5    -0.156166753135E+04   -0.52877E-06   -0.77472E-08  5741   0.470E-04
  44 F= -.15616675E+04 E0= -.15616781E+04  d E =-.290014E-05
       N       E                     dE             d eps       ncg     rms          rms(c)
DAV:   1    -0.156166753249E+04   -0.16695E-05   -0.11764E-04 11052   0.142E-02    0.132E-03
DAV:   2    -0.156166753271E+04   -0.21951E-06   -0.78320E-07  5723   0.137E-03    0.979E-04
DAV:   3    -0.156166753276E+04   -0.56971E-07   -0.27348E-07  5720   0.837E-04    0.750E-04
DAV:   4    -0.156166753292E+04   -0.15789E-06   -0.17896E-07  5723   0.686E-04    0.154E-04
DAV:   5    -0.156166753292E+04    0.61209E-09   -0.85294E-08  5723   0.490E-04
  45 F= -.15616675E+04 E0= -.15616781E+04  d E =-.157445E-05
       N       E                     dE             d eps       ncg     rms          rms(c)
DAV:   1    -0.156166753521E+04   -0.22921E-05   -0.39808E-04 11292   0.261E-02    0.240E-03
DAV:   2    -0.156166753454E+04    0.67055E-06   -0.23046E-06  5723   0.233E-03    0.172E-03
DAV:   3    -0.156166753417E+04    0.36926E-06   -0.86028E-07  5723   0.141E-03    0.108E-03
DAV:   4    -0.156166753377E+04    0.40121E-06   -0.46854E-07  5723   0.118E-03    0.455E-04
DAV:   5    -0.156166753365E+04    0.11739E-06   -0.26821E-07  5723   0.843E-04
  46 F= -.15616675E+04 E0= -.15616781E+04  d E =-.734336E-06
       N       E                     dE             d eps       ncg     rms          rms(c)
DAV:   1    -0.156166753250E+04    0.12746E-05   -0.51666E-05 10618   0.973E-03    0.139E-03
DAV:   2    -0.156166753353E+04   -0.10310E-05   -0.52062E-07  5723   0.116E-03    0.798E-04
DAV:   3    -0.156166753387E+04   -0.33729E-06   -0.13443E-07  5723   0.755E-04    0.656E-04
DAV:   4    -0.156166753427E+04   -0.40721E-06   -0.52945E-08  5723   0.488E-04    0.314E-04
DAV:   5    -0.156166753460E+04   -0.32518E-06   -0.26565E-08  5723   0.281E-04
  47 F= -.15616675E+04 E0= -.15616781E+04  d E =-.943469E-06
       N       E                     dE             d eps       ncg     rms          rms(c)
DAV:   1    -0.156166753550E+04   -0.12301E-05   -0.12278E-04 11058   0.145E-02    0.125E-03
DAV:   2    -0.156166753544E+04    0.62788E-07   -0.68823E-07  5723   0.129E-03    0.916E-04
DAV:   3    -0.156166753541E+04    0.34545E-07   -0.21593E-07  5723   0.718E-04    0.658E-04
DAV:   4    -0.156166753531E+04    0.96144E-07   -0.13026E-07  5723   0.607E-04    0.150E-04
DAV:   5    -0.156166753531E+04   -0.41700E-09   -0.62395E-08  5723   0.403E-04
  48 F= -.15616675E+04 E0= -.15616781E+04  d E =-.711816E-06
       N       E                     dE             d eps       ncg     rms          rms(c)
DAV:   1    -0.156166753770E+04   -0.23954E-05   -0.17905E-03 11326   0.553E-02    0.481E-03
DAV:   2    -0.156166753793E+04   -0.22788E-06   -0.93437E-06  5803   0.467E-03    0.357E-03
DAV:   3    -0.156166753790E+04    0.28384E-07   -0.35075E-06  5744   0.273E-03    0.204E-03
DAV:   4    -0.156166753777E+04    0.13225E-06   -0.19274E-06  5723   0.233E-03    0.619E-04
DAV:   5    -0.156166753785E+04   -0.77273E-07   -0.98580E-07  5723   0.153E-03
  49 F= -.15616675E+04 E0= -.15616781E+04  d E =-.253946E-05
