       N       E                     dE             d eps       ncg     rms          rms(c)
DAV:   1     0.230499301199E+04    0.23050E+04   -0.29612E+05 11864   0.143E+03
DAV:   2    -0.120115957665E+04   -0.35062E+04   -0.33628E+04 13700   0.308E+02
DAV:   3    -0.164537280816E+04   -0.44421E+03   -0.41310E+03 18168   0.817E+01
DAV:   4    -0.167021365120E+04   -0.24841E+02   -0.23315E+02 16536   0.176E+01
DAV:   5    -0.167129070742E+04   -0.10771E+01   -0.10587E+01 18256   0.410E+00    0.419E+01
DAV:   6    -0.162443297397E+04    0.46858E+02   -0.11764E+02 17848   0.143E+01    0.228E+01
DAV:   7    -0.161314461760E+04    0.11288E+02   -0.84917E+01 17088   0.144E+01    0.163E+01
DAV:   8    -0.160238046830E+04    0.10764E+02   -0.51305E+01 17264   0.125E+01    0.797E+00
DAV:   9    -0.159903421020E+04    0.33463E+01   -0.20518E+01 17232   0.732E+00    0.254E+00
DAV:  10    -0.159905316461E+04   -0.18954E-01   -0.35705E+00 16336   0.268E+00    0.163E+00
DAV:  11    -0.159902756341E+04    0.25601E-01   -0.46514E-01 15504   0.938E-01    0.986E-01
DAV:  12    -0.159901523844E+04    0.12325E-01   -0.15789E-01 14544   0.649E-01    0.575E-01
DAV:  13    -0.159900358204E+04    0.11656E-01   -0.42166E-02 15256   0.408E-01    0.340E-01
DAV:  14    -0.159899931608E+04    0.42660E-02   -0.17270E-02 14360   0.184E-01    0.120E-01
DAV:  15    -0.159899907413E+04    0.24195E-03   -0.45120E-03 15768   0.987E-02    0.543E-02
DAV:  16    -0.159899902252E+04    0.51603E-04   -0.98273E-04 15848   0.540E-02    0.354E-02
DAV:  17    -0.159899898235E+04    0.40175E-04   -0.31603E-04 15544   0.306E-02    0.192E-02
DAV:  18    -0.159899896142E+04    0.20927E-04   -0.86312E-05 13760   0.155E-02    0.951E-03
DAV:  19    -0.159899895655E+04    0.48681E-05   -0.21144E-05  7832   0.829E-03
   1 F= -.15989990E+04 E0= -.15989878E+04  d E =-.159900E+04
       N       E                     dE             d eps       ncg     rms          rms(c)
DAV:   1    -0.160235066144E+04   -0.33517E+01   -0.10815E+03 11816   0.488E+01    0.172E+01
DAV:   2    -0.158965631143E+04    0.12694E+02   -0.54871E+01 17792   0.965E+00    0.870E+00
DAV:   3    -0.158695888516E+04    0.26974E+01   -0.26065E+01 19224   0.693E+00    0.622E+00
DAV:   4    -0.158551243154E+04    0.14465E+01   -0.85536E+00 19416   0.478E+00    0.425E+00
DAV:   5    -0.158456195740E+04    0.95047E+00   -0.53455E+00 17632   0.335E+00    0.142E+00
DAV:   6    -0.158451474671E+04    0.47211E-01   -0.10799E+00 16384   0.150E+00    0.886E-01
DAV:   7    -0.158450508258E+04    0.96641E-02   -0.19724E-01 15712   0.686E-01    0.607E-01
DAV:   8    -0.158450328992E+04    0.17927E-02   -0.67695E-02 17200   0.323E-01    0.312E-01
DAV:   9    -0.158450773852E+04   -0.44486E-02   -0.34239E-02 17352   0.214E-01    0.206E-01
DAV:  10    -0.158450728759E+04    0.45093E-03   -0.80910E-03 17024   0.154E-01    0.141E-01
DAV:  11    -0.158450659974E+04    0.68786E-03   -0.44787E-03 18696   0.931E-02    0.566E-02
DAV:  12    -0.158450671037E+04   -0.11063E-03   -0.15870E-03 17080   0.479E-02    0.363E-02
DAV:  13    -0.158450677252E+04   -0.62158E-04   -0.29668E-04 15984   0.241E-02    0.166E-02
DAV:  14    -0.158450677691E+04   -0.43866E-05   -0.67616E-05 12848   0.143E-02
   2 F= -.15845068E+04 E0= -.15845222E+04  d E =0.144922E+02
       N       E                     dE             d eps       ncg     rms          rms(c)
DAV:   1    -0.161196564461E+04   -0.27459E+02   -0.46970E+02 11816   0.357E+01    0.123E+01
DAV:   2    -0.160510379907E+04    0.68618E+01   -0.16514E+01 15608   0.610E+00    0.557E+00
DAV:   3    -0.160400650520E+04    0.10973E+01   -0.70961E+00 16536   0.393E+00    0.390E+00
DAV:   4    -0.160327261399E+04    0.73389E+00   -0.31591E+00 17832   0.337E+00    0.211E+00
DAV:   5    -0.160302867561E+04    0.24394E+00   -0.16341E+00 16608   0.207E+00    0.666E-01
DAV:   6    -0.160302764772E+04    0.10279E-02   -0.29688E-01 14736   0.848E-01    0.436E-01
DAV:   7    -0.160303080177E+04   -0.31541E-02   -0.45925E-02 15872   0.305E-01    0.284E-01
DAV:   8    -0.160303374945E+04   -0.29477E-02   -0.13885E-02 16184   0.166E-01    0.146E-01
DAV:   9    -0.160303655965E+04   -0.28102E-02   -0.74530E-03 14096   0.119E-01    0.955E-02
DAV:  10    -0.160303661817E+04   -0.58519E-04   -0.19248E-03 14512   0.665E-02    0.451E-02
DAV:  11    -0.160303672302E+04   -0.10484E-03   -0.76723E-04 17064   0.404E-02    0.282E-02
DAV:  12    -0.160303688792E+04   -0.16491E-03   -0.33476E-04 15624   0.262E-02    0.266E-02
DAV:  13    -0.160303690441E+04   -0.16493E-04   -0.86236E-05 13288   0.129E-02    0.115E-02
DAV:  14    -0.160303689889E+04    0.55265E-05   -0.25840E-05  7376   0.698E-03
   3 F= -.16030369E+04 E0= -.16030311E+04  d E =-.185301E+02
       N       E                     dE             d eps       ncg     rms          rms(c)
DAV:   1    -0.160310548510E+04   -0.68581E-01   -0.10935E+01 11816   0.427E+00    0.511E-01
DAV:   2    -0.160311599401E+04   -0.10509E-01   -0.19556E-01 17480   0.606E-01    0.378E-01
DAV:   3    -0.160311107460E+04    0.49194E-02   -0.39264E-02 18376   0.342E-01    0.266E-01
DAV:   4    -0.160310945634E+04    0.16183E-02   -0.85585E-03 18256   0.144E-01    0.173E-01
DAV:   5    -0.160310878042E+04    0.67592E-03   -0.52032E-03 15416   0.106E-01    0.585E-02
DAV:   6    -0.160310870470E+04    0.75722E-04   -0.12967E-03 15984   0.617E-02    0.336E-02
DAV:   7    -0.160310866786E+04    0.36834E-04   -0.29373E-04 16032   0.292E-02    0.216E-02
DAV:   8    -0.160310865354E+04    0.14323E-04   -0.76924E-05 13416   0.128E-02    0.132E-02
DAV:   9    -0.160310864903E+04    0.45114E-05   -0.31741E-05  8088   0.862E-03
   4 F= -.16031086E+04 E0= -.16031026E+04  d E =-.717501E-01
       N       E                     dE             d eps       ncg     rms          rms(c)
DAV:   1    -0.160312401575E+04   -0.15362E-01   -0.29667E+00 11828   0.223E+00    0.306E-01
DAV:   2    -0.160312706068E+04   -0.30449E-02   -0.58040E-02 18072   0.374E-01    0.257E-01
DAV:   3    -0.160312317954E+04    0.38811E-02   -0.18780E-02 18624   0.238E-01    0.147E-01
DAV:   4    -0.160312257158E+04    0.60796E-03   -0.29003E-03 16992   0.825E-02    0.942E-02
DAV:   5    -0.160312230237E+04    0.26921E-03   -0.16581E-03 15488   0.621E-02    0.389E-02
DAV:   6    -0.160312225569E+04    0.46676E-04   -0.48791E-04 15864   0.390E-02    0.220E-02
DAV:   7    -0.160312224141E+04    0.14286E-04   -0.11850E-04 14760   0.193E-02    0.140E-02
DAV:   8    -0.160312224187E+04   -0.45966E-06   -0.30533E-05  7952   0.841E-03
   5 F= -.16031222E+04 E0= -.16031163E+04  d E =-.135928E-01
       N       E                     dE             d eps       ncg     rms          rms(c)
DAV:   1    -0.160312450591E+04   -0.22645E-02   -0.17748E-01 12016   0.670E-01    0.220E-01
DAV:   2    -0.160312243084E+04    0.20751E-02   -0.59735E-03 16288   0.109E-01    0.987E-02
DAV:   3    -0.160312211707E+04    0.31378E-03   -0.22928E-03 16232   0.670E-02    0.635E-02
DAV:   4    -0.160312201045E+04    0.10662E-03   -0.89520E-04 17792   0.545E-02    0.365E-02
DAV:   5    -0.160312197529E+04    0.35152E-04   -0.44949E-04 17408   0.368E-02    0.124E-02
DAV:   6    -0.160312198117E+04   -0.58735E-05   -0.92567E-05 13728   0.153E-02
   6 F= -.16031220E+04 E0= -.16031158E+04  d E =0.260700E-03
       N       E                     dE             d eps       ncg     rms          rms(c)
DAV:   1    -0.160312742884E+04   -0.54535E-02   -0.27133E-01 11954   0.707E-01    0.152E-01
DAV:   2    -0.160312692629E+04    0.50255E-03   -0.64482E-03 17552   0.129E-01    0.996E-02
DAV:   3    -0.160312640994E+04    0.51635E-03   -0.29497E-03 18914   0.946E-02    0.642E-02
DAV:   4    -0.160312618920E+04    0.22074E-03   -0.65553E-04 16776   0.413E-02    0.344E-02
DAV:   5    -0.160312610659E+04    0.82604E-04   -0.31557E-04 15512   0.276E-02    0.139E-02
DAV:   6    -0.160312609317E+04    0.13425E-04   -0.70691E-05 13720   0.152E-02    0.840E-03
DAV:   7    -0.160312609129E+04    0.18835E-05   -0.14416E-05  7152   0.746E-03
   7 F= -.16031261E+04 E0= -.16031201E+04  d E =-.411012E-02
       N       E                     dE             d eps       ncg     rms          rms(c)
DAV:   1    -0.160312721674E+04   -0.11236E-02   -0.13331E-01 11924   0.469E-01    0.508E-02
DAV:   2    -0.160312737827E+04   -0.16152E-03   -0.16190E-03 17816   0.659E-02    0.495E-02
DAV:   3    -0.160312725021E+04    0.12806E-03   -0.51777E-04 18110   0.411E-02    0.299E-02
DAV:   4    -0.160312723354E+04    0.16665E-04   -0.10084E-04 13792   0.153E-02    0.106E-02
DAV:   5    -0.160312723248E+04    0.10647E-05   -0.28381E-05  8880   0.106E-02
   8 F= -.16031272E+04 E0= -.16031212E+04  d E =-.114119E-02
       N       E                     dE             d eps       ncg     rms          rms(c)
DAV:   1    -0.160312805010E+04   -0.81656E-03   -0.11398E-01 11924   0.439E-01    0.607E-02
DAV:   2    -0.160312803160E+04    0.18498E-04   -0.14717E-03 17400   0.582E-02    0.447E-02
DAV:   3    -0.160312794323E+04    0.88368E-04   -0.48055E-04 18870   0.389E-02    0.304E-02
DAV:   4    -0.160312789577E+04    0.47463E-04   -0.10295E-04 14672   0.160E-02    0.163E-02
DAV:   5    -0.160312787288E+04    0.22894E-04   -0.48963E-05 10952   0.119E-02    0.592E-03
DAV:   6    -0.160312787040E+04    0.24808E-05   -0.11083E-05  7040   0.749E-03
   9 F= -.16031279E+04 E0= -.16031219E+04  d E =-.637918E-03
       N       E                     dE             d eps       ncg     rms          rms(c)
DAV:   1    -0.160312814310E+04   -0.27023E-03   -0.55702E-03 12000   0.118E-01    0.397E-02
DAV:   2    -0.160312810627E+04    0.36831E-04   -0.18317E-04 16376   0.197E-02    0.181E-02
DAV:   3    -0.160312811010E+04   -0.38235E-05   -0.76093E-05 13896   0.138E-02    0.126E-02
DAV:   4    -0.160312811171E+04   -0.16107E-05   -0.23122E-05  8760   0.105E-02    0.652E-03
DAV:   5    -0.160312811952E+04   -0.78089E-05   -0.11603E-05  6496   0.657E-03
  10 F= -.16031281E+04 E0= -.16031221E+04  d E =-.249120E-03
       N       E                     dE             d eps       ncg     rms          rms(c)
DAV:   1    -0.160312861334E+04   -0.50164E-03   -0.52470E-02 11924   0.294E-01    0.295E-02
DAV:   2    -0.160312864182E+04   -0.28474E-04   -0.47267E-04 17240   0.314E-02    0.245E-02
DAV:   3    -0.160312862341E+04    0.18404E-04   -0.87785E-05 14592   0.176E-02    0.182E-02
DAV:   4    -0.160312861083E+04    0.12587E-04   -0.33491E-05  8616   0.883E-03    0.497E-03
DAV:   5    -0.160312860929E+04    0.15365E-05   -0.76306E-06  6592   0.599E-03
  11 F= -.16031286E+04 E0= -.16031226E+04  d E =-.489773E-03
       N       E                     dE             d eps       ncg     rms          rms(c)
DAV:   1    -0.160312936488E+04   -0.75405E-03   -0.22743E-01 11828   0.611E-01    0.583E-02
DAV:   2    -0.160312949826E+04   -0.13338E-03   -0.19093E-03 17136   0.587E-02    0.462E-02
DAV:   3    -0.160312946803E+04    0.30228E-04   -0.24461E-04 17772   0.270E-02    0.369E-02
DAV:   4    -0.160312944057E+04    0.27463E-04   -0.14935E-04 13576   0.184E-02    0.733E-03
DAV:   5    -0.160312943903E+04    0.15440E-05   -0.19461E-05  7972   0.874E-03
  12 F= -.16031294E+04 E0= -.16031234E+04  d E =-.829737E-03
       N       E                     dE             d eps       ncg     rms          rms(c)
DAV:   1    -0.160312925530E+04    0.18527E-03   -0.27926E-02 11900   0.220E-01    0.334E-02
DAV:   2    -0.160312920713E+04    0.48173E-04   -0.26903E-04 17016   0.228E-02    0.200E-02
DAV:   3    -0.160312919032E+04    0.16808E-04   -0.56842E-05 11388   0.139E-02    0.150E-02
DAV:   4    -0.160312916833E+04    0.21987E-04   -0.22902E-05  8648   0.103E-02    0.664E-03
DAV:   5    -0.160312915892E+04    0.94165E-05   -0.11704E-05  6328   0.616E-03
  13 F= -.16031292E+04 E0= -.16031231E+04  d E =0.280109E-03
       N       E                     dE             d eps       ncg     rms          rms(c)
DAV:   1    -0.160312954910E+04   -0.38076E-03   -0.57370E-02 11900   0.307E-01    0.300E-02
DAV:   2    -0.160312958016E+04   -0.31066E-04   -0.45031E-04 17112   0.279E-02    0.224E-02
DAV:   3    -0.160312957637E+04    0.37973E-05   -0.36095E-05  9794   0.114E-02    0.167E-02
DAV:   4    -0.160312957455E+04    0.18200E-05   -0.29023E-05  8200   0.101E-02    0.305E-03
DAV:   5    -0.160312957520E+04   -0.65583E-06   -0.68021E-06  6352   0.569E-03
  14 F= -.16031296E+04 E0= -.16031235E+04  d E =-.416285E-03
       N       E                     dE             d eps       ncg     rms          rms(c)
DAV:   1    -0.160312987927E+04   -0.30472E-03   -0.53468E-02 11864   0.296E-01    0.279E-02
DAV:   2    -0.160312990445E+04   -0.25182E-04   -0.44848E-04 17232   0.269E-02    0.215E-02
DAV:   3    -0.160312989753E+04    0.69180E-05   -0.28445E-05  9054   0.104E-02    0.159E-02
DAV:   4    -0.160312988747E+04    0.10067E-04   -0.27505E-05  7784   0.980E-03    0.316E-03
DAV:   5    -0.160312988725E+04    0.21246E-06   -0.62096E-06  6424   0.593E-03
  15 F= -.16031299E+04 E0= -.16031239E+04  d E =-.312053E-03
       N       E                     dE             d eps       ncg     rms          rms(c)
DAV:   1    -0.160313006240E+04   -0.17493E-03   -0.32402E-02 11888   0.234E-01    0.292E-02
DAV:   2    -0.160313007859E+04   -0.16189E-04   -0.30528E-04 17192   0.223E-02    0.184E-02
DAV:   3    -0.160313007998E+04   -0.13949E-05   -0.29641E-05  8548   0.897E-03    0.111E-02
DAV:   4    -0.160313008516E+04   -0.51845E-05   -0.14168E-05  7800   0.880E-03    0.562E-03
DAV:   5    -0.160313008819E+04   -0.30283E-05   -0.66986E-06  6528   0.612E-03
  16 F= -.16031301E+04 E0= -.16031240E+04  d E =-.200939E-03
       N       E                     dE             d eps       ncg     rms          rms(c)
DAV:   1    -0.160313015998E+04   -0.74817E-04   -0.10944E-03 11984   0.535E-02    0.185E-02
DAV:   2    -0.160313012695E+04    0.33035E-04   -0.25917E-05  6688   0.863E-03    0.835E-03
DAV:   3    -0.160313011588E+04    0.11070E-04   -0.12079E-05  6248   0.720E-03    0.514E-03
DAV:   4    -0.160313010972E+04    0.61600E-05   -0.51080E-06  6232   0.556E-03    0.219E-03
DAV:   5    -0.160313010596E+04    0.37554E-05   -0.23824E-06  6200   0.287E-03
  17 F= -.16031301E+04 E0= -.16031241E+04  d E =-.177686E-04
       N       E                     dE             d eps       ncg     rms          rms(c)
DAV:   1    -0.160313022729E+04   -0.11758E-03   -0.13401E-02 11888   0.148E-01    0.140E-02
DAV:   2    -0.160313023443E+04   -0.71353E-05   -0.10507E-04 15584   0.132E-02    0.107E-02
DAV:   3    -0.160313023325E+04    0.11798E-05   -0.91494E-06  6730   0.558E-03    0.586E-03
DAV:   4    -0.160313023311E+04    0.14279E-06   -0.59018E-06  6344   0.529E-03    0.182E-03
DAV:   5    -0.160313023291E+04    0.19800E-06   -0.14840E-06  6182   0.286E-03
  18 F= -.16031302E+04 E0= -.16031242E+04  d E =-.126945E-03
       N       E                     dE             d eps       ncg     rms          rms(c)
DAV:   1    -0.160313050805E+04   -0.27495E-03   -0.11447E-01 11816   0.433E-01    0.418E-02
DAV:   2    -0.160313054946E+04   -0.41411E-04   -0.94123E-04 17320   0.389E-02    0.314E-02
DAV:   3    -0.160313052923E+04    0.20234E-04   -0.82247E-05 13770   0.144E-02    0.198E-02
DAV:   4    -0.160313051133E+04    0.17897E-04   -0.50221E-05 10848   0.136E-02    0.641E-03
DAV:   5    -0.160313050814E+04    0.31873E-05   -0.13762E-05  7316   0.826E-03
  19 F= -.16031305E+04 E0= -.16031245E+04  d E =-.275237E-03
       N       E                     dE             d eps       ncg     rms          rms(c)
DAV:   1    -0.160313037955E+04    0.13179E-03   -0.30366E-02 11852   0.225E-01    0.269E-02
DAV:   2    -0.160313039188E+04   -0.12334E-04   -0.25441E-04 17104   0.211E-02    0.177E-02
DAV:   3    -0.160313039141E+04    0.47255E-06   -0.27345E-05  8838   0.948E-03    0.121E-02
DAV:   4    -0.160313039280E+04   -0.13934E-05   -0.13896E-05  7784   0.890E-03    0.566E-03
DAV:   5    -0.160313039617E+04   -0.33694E-05   -0.72624E-06  6184   0.566E-03
  20 F= -.16031304E+04 E0= -.16031244E+04  d E =0.111975E-03
       N       E                     dE             d eps       ncg     rms          rms(c)
DAV:   1    -0.160313052670E+04   -0.13390E-03   -0.22734E-02 11852   0.193E-01    0.186E-02
DAV:   2    -0.160313053092E+04   -0.42220E-05   -0.17187E-04 16720   0.170E-02    0.139E-02
DAV:   3    -0.160313052427E+04    0.66523E-05   -0.12836E-05  7316   0.650E-03    0.771E-03
DAV:   4    -0.160313051979E+04    0.44762E-05   -0.85404E-06  6776   0.660E-03    0.227E-03
DAV:   5    -0.160313051946E+04    0.33060E-06   -0.24454E-06  6184   0.388E-03
  21 F= -.16031305E+04 E0= -.16031245E+04  d E =-.123294E-03
       N       E                     dE             d eps       ncg     rms          rms(c)
DAV:   1    -0.160313063412E+04   -0.11433E-03   -0.34374E-02 11828   0.237E-01    0.222E-02
DAV:   2    -0.160313065387E+04   -0.19752E-04   -0.28304E-04 17280   0.212E-02    0.170E-02
DAV:   3    -0.160313064952E+04    0.43471E-05   -0.19810E-05  7982   0.803E-03    0.785E-03
DAV:   4    -0.160313064924E+04    0.28853E-06   -0.11498E-05  7416   0.796E-03    0.300E-03
DAV:   5    -0.160313064864E+04    0.59766E-06   -0.29746E-06  6256   0.444E-03
  22 F= -.16031306E+04 E0= -.16031246E+04  d E =-.129174E-03
       N       E                     dE             d eps       ncg     rms          rms(c)
DAV:   1    -0.160313064625E+04    0.29880E-05   -0.10489E-03 11936   0.471E-02    0.126E-02
DAV:   2    -0.160313062769E+04    0.18558E-04   -0.14449E-05  6160   0.638E-03    0.597E-03
DAV:   3    -0.160313062103E+04    0.66575E-05   -0.63420E-06  6148   0.517E-03    0.374E-03
DAV:   4    -0.160313061703E+04    0.39991E-05   -0.26827E-06  6160   0.398E-03    0.172E-03
DAV:   5    -0.160313061448E+04    0.25544E-05   -0.13273E-06  6160   0.215E-03
  23 F= -.16031306E+04 E0= -.16031246E+04  d E =0.341594E-04
       N       E                     dE             d eps       ncg     rms          rms(c)
DAV:   1    -0.160313066652E+04   -0.49490E-04   -0.63339E-03 11876   0.103E-01    0.121E-02
DAV:   2    -0.160313067217E+04   -0.56444E-05   -0.41552E-05  9656   0.953E-03    0.778E-03
DAV:   3    -0.160313067508E+04   -0.29112E-05   -0.99159E-06  6220   0.536E-03    0.449E-03
DAV:   4    -0.160313067744E+04   -0.23657E-05   -0.42305E-06  6184   0.428E-03    0.211E-03
DAV:   5    -0.160313067882E+04   -0.13785E-05   -0.23139E-06  6152   0.292E-03
  24 F= -.16031307E+04 E0= -.16031246E+04  d E =-.643444E-04
       N       E                     dE             d eps       ncg     rms          rms(c)
DAV:   1    -0.160313071089E+04   -0.33446E-04   -0.36954E-03 11876   0.777E-02    0.766E-03
DAV:   2    -0.160313071074E+04    0.14984E-06   -0.21530E-05  7680   0.722E-03    0.557E-03
DAV:   3    -0.160313071011E+04    0.63436E-06   -0.81223E-06  6240   0.437E-03    0.288E-03
DAV:   4    -0.160313070949E+04    0.61518E-06   -0.44779E-06  6160   0.377E-03    0.787E-04
DAV:   5    -0.160313070974E+04   -0.24559E-06   -0.23502E-06  6160   0.264E-03
  25 F= -.16031307E+04 E0= -.16031247E+04  d E =-.309132E-04
       N       E                     dE             d eps       ncg     rms          rms(c)
DAV:   1    -0.160313073702E+04   -0.27525E-04   -0.62978E-03 11876   0.102E-01    0.116E-02
DAV:   2    -0.160313074451E+04   -0.74976E-05   -0.57647E-05 12072   0.994E-03    0.792E-03
DAV:   3    -0.160313074692E+04   -0.24090E-05   -0.89769E-06  6386   0.520E-03    0.466E-03
DAV:   4    -0.160313074948E+04   -0.25590E-05   -0.34752E-06  6160   0.405E-03    0.207E-03
DAV:   5    -0.160313075064E+04   -0.11584E-05   -0.17828E-06  6160   0.283E-03
  26 F= -.16031308E+04 E0= -.16031247E+04  d E =-.409034E-04
       N       E                     dE             d eps       ncg     rms          rms(c)
DAV:   1    -0.160313075591E+04   -0.64261E-05   -0.37022E-04 11936   0.271E-02    0.655E-03
DAV:   2    -0.160313074830E+04    0.76074E-05   -0.40631E-06  6142   0.346E-03    0.318E-03
DAV:   3    -0.160313074507E+04    0.32256E-05   -0.17040E-06  6130   0.263E-03    0.196E-03
DAV:   4    -0.160313074320E+04    0.18714E-05   -0.72920E-07  6142   0.200E-03    0.904E-04
DAV:   5    -0.160313074193E+04    0.12697E-05   -0.33808E-07  6142   0.110E-03
  27 F= -.16031307E+04 E0= -.16031247E+04  d E =0.870643E-05
       N       E                     dE             d eps       ncg     rms          rms(c)
DAV:   1    -0.160313076210E+04   -0.18896E-04   -0.23127E-03 11876   0.616E-02    0.565E-03
DAV:   2    -0.160313076234E+04   -0.24455E-06   -0.11491E-05  6142   0.542E-03    0.416E-03
DAV:   3    -0.160313076214E+04    0.20274E-06   -0.38639E-06  6112   0.306E-03    0.209E-03
DAV:   4    -0.160313076202E+04    0.12362E-06   -0.21470E-06  6142   0.269E-03    0.690E-04
DAV:   5    -0.160313076212E+04   -0.99777E-07   -0.10379E-06  6112   0.177E-03
  28 F= -.16031308E+04 E0= -.16031247E+04  d E =-.201833E-04
       N       E                     dE             d eps       ncg     rms          rms(c)
DAV:   1    -0.160313082250E+04   -0.60489E-04   -0.52075E-02 11816   0.292E-01    0.273E-02
DAV:   2    -0.160313084912E+04   -0.26613E-04   -0.42978E-04 17248   0.261E-02    0.210E-02
DAV:   3    -0.160313084059E+04    0.85261E-05   -0.32931E-05  9328   0.987E-03    0.101E-02
DAV:   4    -0.160313083775E+04    0.28392E-05   -0.17713E-05  8232   0.957E-03    0.373E-03
DAV:   5    -0.160313083705E+04    0.70107E-06   -0.44415E-06  6370   0.533E-03
  29 F= -.16031308E+04 E0= -.16031248E+04  d E =-.749357E-04
       N       E                     dE             d eps       ncg     rms          rms(c)
DAV:   1    -0.160313085332E+04   -0.15569E-04   -0.19467E-02 11828   0.179E-01    0.164E-02
DAV:   2    -0.160313086440E+04   -0.11078E-04   -0.16579E-04 16792   0.161E-02    0.127E-02
DAV:   3    -0.160313086171E+04    0.26901E-05   -0.10357E-05  7122   0.608E-03    0.710E-03
DAV:   4    -0.160313086042E+04    0.12920E-05   -0.76434E-06  6496   0.604E-03    0.218E-03
DAV:   5    -0.160313086022E+04    0.19470E-06   -0.19574E-06  6256   0.351E-03
  30 F= -.16031309E+04 E0= -.16031248E+04  d E =-.231713E-04
       N       E                     dE             d eps       ncg     rms          rms(c)
DAV:   1    -0.160313086332E+04   -0.29002E-05   -0.14108E-02 11828   0.152E-01    0.140E-02
DAV:   2    -0.160313086985E+04   -0.65317E-05   -0.11749E-04 16128   0.137E-02    0.108E-02
DAV:   3    -0.160313086729E+04    0.25635E-05   -0.84528E-06  6864   0.535E-03    0.608E-03
DAV:   4    -0.160313086566E+04    0.16254E-05   -0.56677E-06  6336   0.519E-03    0.185E-03
DAV:   5    -0.160313086553E+04    0.12957E-06   -0.15732E-06  6242   0.312E-03
  31 F= -.16031309E+04 E0= -.16031248E+04  d E =-.530806E-05
