       N       E                     dE             d eps       ncg     rms          rms(c)
DAV:   1     0.244714452232E+04    0.24471E+04   -0.30240E+05 12040   0.144E+03
DAV:   2    -0.120269362688E+04   -0.36498E+04   -0.34988E+04 13956   0.321E+02
DAV:   3    -0.166730260067E+04   -0.46461E+03   -0.43591E+03 18496   0.819E+01
DAV:   4    -0.169220694322E+04   -0.24904E+02   -0.23712E+02 16936   0.179E+01
DAV:   5    -0.169323133604E+04   -0.10244E+01   -0.10082E+01 18768   0.394E+00    0.437E+01
DAV:   6    -0.164167326555E+04    0.51558E+02   -0.14819E+02 18192   0.158E+01    0.232E+01
DAV:   7    -0.162631460841E+04    0.15359E+02   -0.87646E+01 17024   0.138E+01    0.147E+01
DAV:   8    -0.161818266135E+04    0.81319E+01   -0.40768E+01 16568   0.113E+01    0.595E+00
DAV:   9    -0.161595970376E+04    0.22230E+01   -0.13007E+01 16656   0.657E+00    0.211E+00
DAV:  10    -0.161601785780E+04   -0.58154E-01   -0.31524E+00 17344   0.234E+00    0.144E+00
DAV:  11    -0.161598180419E+04    0.36054E-01   -0.34973E-01 15904   0.874E-01    0.857E-01
DAV:  12    -0.161596397115E+04    0.17833E-01   -0.12623E-01 14784   0.588E-01    0.452E-01
DAV:  13    -0.161595659787E+04    0.73733E-02   -0.32644E-02 15816   0.331E-01    0.240E-01
DAV:  14    -0.161595514110E+04    0.14568E-02   -0.14163E-02 15104   0.159E-01    0.752E-02
DAV:  15    -0.161595518218E+04   -0.41080E-04   -0.23576E-03 15664   0.822E-02    0.471E-02
DAV:  16    -0.161595515726E+04    0.24914E-04   -0.66200E-04 15888   0.443E-02    0.289E-02
DAV:  17    -0.161595513429E+04    0.22968E-04   -0.21745E-04 15808   0.235E-02    0.147E-02
DAV:  18    -0.161595511884E+04    0.15457E-04   -0.52997E-05 10856   0.121E-02    0.803E-03
DAV:  19    -0.161595511158E+04    0.72592E-05   -0.18158E-05  7856   0.722E-03
   1 F= -.16159551E+04 E0= -.16159513E+04  d E =-.161596E+04
       N       E                     dE             d eps       ncg     rms          rms(c)
DAV:   1    -0.161763395247E+04   -0.16788E+01   -0.65102E+02 12040   0.369E+01    0.121E+01
DAV:   2    -0.161097990392E+04    0.66540E+01   -0.24454E+01 16616   0.687E+00    0.586E+00
DAV:   3    -0.160932475200E+04    0.16552E+01   -0.91877E+00 16416   0.422E+00    0.369E+00
DAV:   4    -0.160876816383E+04    0.55659E+00   -0.31374E+00 16568   0.312E+00    0.194E+00
DAV:   5    -0.160852323533E+04    0.24493E+00   -0.14488E+00 16072   0.216E+00    0.717E-01
DAV:   6    -0.160851697979E+04    0.62555E-02   -0.33503E-01 15736   0.888E-01    0.465E-01
DAV:   7    -0.160851903623E+04   -0.20564E-02   -0.59632E-02 16288   0.349E-01    0.333E-01
DAV:   8    -0.160851974910E+04   -0.71287E-03   -0.20043E-02 15960   0.195E-01    0.176E-01
DAV:   9    -0.160852097783E+04   -0.12287E-02   -0.93901E-03 16176   0.125E-01    0.122E-01
DAV:  10    -0.160852036341E+04    0.61443E-03   -0.24190E-03 15896   0.779E-02    0.576E-02
DAV:  11    -0.160852025716E+04    0.10625E-03   -0.10664E-03 17144   0.472E-02    0.291E-02
DAV:  12    -0.160852029516E+04   -0.38001E-04   -0.38224E-04 16152   0.263E-02    0.228E-02
DAV:  13    -0.160852029888E+04   -0.37233E-05   -0.80672E-05 13864   0.128E-02
   2 F= -.16085203E+04 E0= -.16085143E+04  d E =0.743481E+01
       N       E                     dE             d eps       ncg     rms          rms(c)
DAV:   1    -0.162296320925E+04   -0.14443E+02   -0.24730E+02 12040   0.256E+01    0.874E+00
DAV:   2    -0.161932294212E+04    0.36403E+01   -0.70938E+00 14122   0.412E+00    0.407E+00
DAV:   3    -0.161851523248E+04    0.80771E+00   -0.26671E+00 14400   0.242E+00    0.215E+00
DAV:   4    -0.161827588183E+04    0.23935E+00   -0.10526E+00 15160   0.192E+00    0.830E-01
DAV:   5    -0.161823380298E+04    0.42079E-01   -0.36652E-01 15320   0.116E+00    0.321E-01
DAV:   6    -0.161823541575E+04   -0.16128E-02   -0.76424E-02 15048   0.448E-01    0.230E-01
DAV:   7    -0.161823714751E+04   -0.17318E-02   -0.13555E-02 15912   0.168E-01    0.149E-01
DAV:   8    -0.161823840533E+04   -0.12578E-02   -0.47765E-03 15736   0.986E-02    0.780E-02
DAV:   9    -0.161823896632E+04   -0.56099E-03   -0.16689E-03 14008   0.604E-02    0.451E-02
DAV:  10    -0.161823907491E+04   -0.10859E-03   -0.77932E-04 16048   0.400E-02    0.230E-02
DAV:  11    -0.161823914569E+04   -0.70782E-04   -0.15475E-04 14888   0.206E-02    0.192E-02
DAV:  12    -0.161823914994E+04   -0.42572E-05   -0.37765E-05  9488   0.107E-02
   3 F= -.16182391E+04 E0= -.16182413E+04  d E =-.971885E+01
       N       E                     dE             d eps       ncg     rms          rms(c)
DAV:   1    -0.161828527489E+04   -0.46129E-01   -0.92260E+00 12040   0.386E+00    0.502E-01
DAV:   2    -0.161829108897E+04   -0.58141E-02   -0.17000E-01 17472   0.605E-01    0.317E-01
DAV:   3    -0.161828901344E+04    0.20755E-02   -0.25919E-02 18240   0.271E-01    0.233E-01
DAV:   4    -0.161828796949E+04    0.10439E-02   -0.69284E-03 18720   0.146E-01    0.149E-01
DAV:   5    -0.161828722085E+04    0.74865E-03   -0.40900E-03 16536   0.103E-01    0.422E-02
DAV:   6    -0.161828719772E+04    0.23124E-04   -0.82240E-04 15984   0.466E-02    0.270E-02
DAV:   7    -0.161828718538E+04    0.12345E-04   -0.17808E-04 15112   0.223E-02    0.178E-02
DAV:   8    -0.161828718192E+04    0.34588E-05   -0.51115E-05 11928   0.110E-02
   4 F= -.16182872E+04 E0= -.16182899E+04  d E =-.480320E-01
       N       E                     dE             d eps       ncg     rms          rms(c)
DAV:   1    -0.161829209125E+04   -0.49059E-02   -0.76943E-01 12148   0.112E+00    0.131E-01
DAV:   2    -0.161829261238E+04   -0.52113E-03   -0.11290E-02 16968   0.158E-01    0.916E-02
DAV:   3    -0.161829239855E+04    0.21383E-03   -0.21536E-03 18256   0.799E-02    0.682E-02
DAV:   4    -0.161829231034E+04    0.88212E-04   -0.54169E-04 17608   0.390E-02    0.397E-02
DAV:   5    -0.161829229089E+04    0.19443E-04   -0.32438E-04 14930   0.276E-02    0.109E-02
DAV:   6    -0.161829228826E+04    0.26355E-05   -0.54372E-05 12544   0.132E-02
   5 F= -.16182923E+04 E0= -.16182952E+04  d E =-.510634E-02
       N       E                     dE             d eps       ncg     rms          rms(c)
DAV:   1    -0.161829387470E+04   -0.15838E-02   -0.14506E-01 12206   0.521E-01    0.119E-01
DAV:   2    -0.161829328172E+04    0.59299E-03   -0.26164E-03 16944   0.805E-02    0.633E-02
DAV:   3    -0.161829312499E+04    0.15673E-03   -0.10272E-03 18468   0.551E-02    0.468E-02
DAV:   4    -0.161829297718E+04    0.14781E-03   -0.39547E-04 17800   0.357E-02    0.229E-02
DAV:   5    -0.161829292135E+04    0.55830E-04   -0.19083E-04 15608   0.219E-02    0.801E-03
DAV:   6    -0.161829291798E+04    0.33698E-05   -0.25243E-05  8184   0.931E-03
   6 F= -.16182929E+04 E0= -.16182960E+04  d E =-.629719E-03
       N       E                     dE             d eps       ncg     rms          rms(c)
DAV:   1    -0.161829443758E+04   -0.15162E-02   -0.57794E-02 12212   0.335E-01    0.803E-02
DAV:   2    -0.161829426041E+04    0.17717E-03   -0.88639E-04 16744   0.434E-02    0.413E-02
DAV:   3    -0.161829424134E+04    0.19072E-04   -0.32987E-04 17468   0.292E-02    0.282E-02
DAV:   4    -0.161829422800E+04    0.13333E-04   -0.15679E-04 16616   0.234E-02    0.128E-02
DAV:   5    -0.161829423941E+04   -0.11410E-04   -0.65318E-05 13448   0.133E-02    0.462E-03
DAV:   6    -0.161829423998E+04   -0.56999E-06   -0.94097E-06  6776   0.522E-03
   7 F= -.16182942E+04 E0= -.16182973E+04  d E =-.132201E-02
       N       E                     dE             d eps       ncg     rms          rms(c)
DAV:   1    -0.161829489973E+04   -0.66032E-03   -0.71109E-02 12160   0.339E-01    0.384E-02
DAV:   2    -0.161829491854E+04   -0.18813E-04   -0.72247E-04 17624   0.408E-02    0.281E-02
DAV:   3    -0.161829489541E+04    0.23131E-04   -0.14748E-04 16626   0.227E-02    0.213E-02
DAV:   4    -0.161829487664E+04    0.18771E-04   -0.39419E-05 10296   0.106E-02    0.939E-03
DAV:   5    -0.161829486975E+04    0.68948E-05   -0.16099E-05  7232   0.780E-03
   8 F= -.16182949E+04 E0= -.16182979E+04  d E =-.629766E-03
       N       E                     dE             d eps       ncg     rms          rms(c)
DAV:   1    -0.161829531046E+04   -0.43382E-03   -0.61830E-02 12184   0.317E-01    0.349E-02
DAV:   2    -0.161829534758E+04   -0.37115E-04   -0.55038E-04 17560   0.325E-02    0.249E-02
DAV:   3    -0.161829534213E+04    0.54442E-05   -0.69999E-05 13770   0.159E-02    0.190E-02
DAV:   4    -0.161829534479E+04   -0.26528E-05   -0.39007E-05  9816   0.105E-02    0.379E-03
DAV:   5    -0.161829534655E+04   -0.17606E-05   -0.74537E-06  6824   0.565E-03
   9 F= -.16182953E+04 E0= -.16182984E+04  d E =-.476800E-03
       N       E                     dE             d eps       ncg     rms          rms(c)
DAV:   1    -0.161829551004E+04   -0.16525E-03   -0.41253E-03 12224   0.913E-02    0.245E-02
DAV:   2    -0.161829546346E+04    0.46581E-04   -0.71994E-05 13488   0.127E-02    0.120E-02
DAV:   3    -0.161829544623E+04    0.17233E-04   -0.21011E-05  8032   0.837E-03    0.691E-03
DAV:   4    -0.161829543569E+04    0.10540E-04   -0.72579E-06  6784   0.647E-03    0.329E-03
DAV:   5    -0.161829543023E+04    0.54596E-05   -0.45928E-06  6464   0.443E-03
  10 F= -.16182954E+04 E0= -.16182985E+04  d E =-.836798E-04
       N       E                     dE             d eps       ncg     rms          rms(c)
DAV:   1    -0.161829570724E+04   -0.27155E-03   -0.29189E-02 12160   0.217E-01    0.227E-02
DAV:   2    -0.161829572645E+04   -0.19219E-04   -0.24775E-04 17480   0.210E-02    0.168E-02
DAV:   3    -0.161829572465E+04    0.18081E-05   -0.18467E-05  8702   0.910E-03    0.121E-02
DAV:   4    -0.161829572737E+04   -0.27269E-05   -0.17812E-05  6984   0.784E-03    0.201E-03
DAV:   5    -0.161829572749E+04   -0.11658E-06   -0.38482E-06  6464   0.457E-03
  11 F= -.16182957E+04 E0= -.16182988E+04  d E =-.297262E-03
       N       E                     dE             d eps       ncg     rms          rms(c)
DAV:   1    -0.161829598856E+04   -0.26119E-03   -0.34791E-02 12166   0.237E-01    0.242E-02
DAV:   2    -0.161829599627E+04   -0.77136E-05   -0.29643E-04 17536   0.229E-02    0.179E-02
DAV:   3    -0.161829598834E+04    0.79371E-05   -0.21972E-05  8778   0.952E-03    0.128E-02
DAV:   4    -0.161829597791E+04    0.10424E-04   -0.18006E-05  7464   0.841E-03    0.296E-03
DAV:   5    -0.161829597674E+04    0.11753E-05   -0.53915E-06  6458   0.540E-03
  12 F= -.16182960E+04 E0= -.16182991E+04  d E =-.249248E-03
       N       E                     dE             d eps       ncg     rms          rms(c)
DAV:   1    -0.161829604353E+04   -0.65613E-04   -0.35408E-03 12208   0.800E-02    0.160E-02
DAV:   2    -0.161829604750E+04   -0.39736E-05   -0.31744E-05  8192   0.911E-03    0.853E-03
DAV:   3    -0.161829605398E+04   -0.64849E-05   -0.13220E-05  6512   0.604E-03    0.386E-03
DAV:   4    -0.161829605847E+04   -0.44882E-05   -0.57036E-06  6416   0.482E-03    0.184E-03
DAV:   5    -0.161829606048E+04   -0.20033E-05   -0.27927E-06  6384   0.340E-03
  13 F= -.16182961E+04 E0= -.16182992E+04  d E =-.837383E-04
       N       E                     dE             d eps       ncg     rms          rms(c)
DAV:   1    -0.161829621545E+04   -0.15698E-03   -0.12469E-02 12172   0.143E-01    0.172E-02
DAV:   2    -0.161829620855E+04    0.68991E-05   -0.11807E-04 16376   0.142E-02    0.116E-02
DAV:   3    -0.161829620169E+04    0.68629E-05   -0.12030E-05  7548   0.634E-03    0.750E-03
DAV:   4    -0.161829619509E+04    0.66041E-05   -0.65052E-06  6464   0.580E-03    0.284E-03
DAV:   5    -0.161829619274E+04    0.23530E-05   -0.29022E-06  6416   0.385E-03
  14 F= -.16182962E+04 E0= -.16182993E+04  d E =-.132259E-03
       N       E                     dE             d eps       ncg     rms          rms(c)
DAV:   1    -0.161829631289E+04   -0.11780E-03   -0.13126E-02 12172   0.145E-01    0.145E-02
DAV:   2    -0.161829632233E+04   -0.94455E-05   -0.10693E-04 15744   0.136E-02    0.109E-02
DAV:   3    -0.161829632250E+04   -0.16838E-06   -0.10193E-05  7208   0.576E-03    0.555E-03
DAV:   4    -0.161829632428E+04   -0.17754E-05   -0.57921E-06  6456   0.523E-03    0.161E-03
DAV:   5    -0.161829632395E+04    0.32556E-06   -0.15540E-06  6320   0.293E-03
  15 F= -.16182963E+04 E0= -.16182994E+04  d E =-.131215E-03
       N       E                     dE             d eps       ncg     rms          rms(c)
DAV:   1    -0.161829643989E+04   -0.11561E-03   -0.13530E-02 12148   0.148E-01    0.170E-02
DAV:   2    -0.161829643377E+04    0.61144E-05   -0.12020E-04 16504   0.144E-02    0.116E-02
DAV:   3    -0.161829642638E+04    0.73969E-05   -0.11263E-05  7350   0.589E-03    0.709E-03
DAV:   4    -0.161829641998E+04    0.63961E-05   -0.61858E-06  6496   0.558E-03    0.251E-03
DAV:   5    -0.161829641814E+04    0.18368E-05   -0.25261E-06  6346   0.383E-03
  16 F= -.16182964E+04 E0= -.16182996E+04  d E =-.941921E-04
       N       E                     dE             d eps       ncg     rms          rms(c)
DAV:   1    -0.161829644796E+04   -0.27983E-04   -0.10589E-03 12184   0.448E-02    0.104E-02
DAV:   2    -0.161829645247E+04   -0.45122E-05   -0.10999E-05  6272   0.541E-03    0.536E-03
DAV:   3    -0.161829645731E+04   -0.48323E-05   -0.50202E-06  6260   0.368E-03    0.238E-03
DAV:   4    -0.161829646019E+04   -0.28873E-05   -0.21552E-06  6272   0.290E-03    0.118E-03
DAV:   5    -0.161829646151E+04   -0.13129E-05   -0.10151E-06  6272   0.205E-03
  17 F= -.16182965E+04 E0= -.16182996E+04  d E =-.433648E-04
       N       E                     dE             d eps       ncg     rms          rms(c)
DAV:   1    -0.161829654011E+04   -0.79919E-04   -0.79727E-03 12160   0.113E-01    0.116E-02
DAV:   2    -0.161829654026E+04   -0.14187E-06   -0.63625E-05 13368   0.107E-02    0.864E-03
DAV:   3    -0.161829653699E+04    0.32684E-05   -0.89322E-06  6740   0.504E-03    0.433E-03
DAV:   4    -0.161829653476E+04    0.22272E-05   -0.37784E-06  6368   0.407E-03    0.128E-03
DAV:   5    -0.161829653467E+04    0.85315E-07   -0.13820E-06  6270   0.275E-03
  18 F= -.16182965E+04 E0= -.16182997E+04  d E =-.731672E-04
       N       E                     dE             d eps       ncg     rms          rms(c)
DAV:   1    -0.161829660034E+04   -0.65579E-04   -0.95453E-03 12148   0.124E-01    0.129E-02
DAV:   2    -0.161829660876E+04   -0.84191E-05   -0.78953E-05 14656   0.116E-02    0.941E-03
DAV:   3    -0.161829661055E+04   -0.17885E-05   -0.98184E-06  6682   0.502E-03    0.390E-03
DAV:   4    -0.161829661294E+04   -0.23906E-05   -0.35111E-06  6392   0.394E-03    0.133E-03
DAV:   5    -0.161829661287E+04    0.62553E-07   -0.12798E-06  6272   0.268E-03
  19 F= -.16182966E+04 E0= -.16182997E+04  d E =-.781998E-04
       N       E                     dE             d eps       ncg     rms          rms(c)
DAV:   1    -0.161829663508E+04   -0.22146E-04   -0.43116E-04 12184   0.292E-02    0.759E-03
DAV:   2    -0.161829662601E+04    0.90762E-05   -0.59538E-06  6272   0.396E-03    0.374E-03
DAV:   3    -0.161829662161E+04    0.43997E-05   -0.26284E-06  6260   0.286E-03    0.188E-03
DAV:   4    -0.161829661917E+04    0.24338E-05   -0.11489E-06  6272   0.228E-03    0.880E-04
DAV:   5    -0.161829661795E+04    0.12272E-05   -0.58450E-07  6272   0.154E-03
  20 F= -.16182966E+04 E0= -.16182998E+04  d E =-.507191E-05
       N       E                     dE             d eps       ncg     rms          rms(c)
DAV:   1    -0.161829666040E+04   -0.41223E-04   -0.46171E-03 12160   0.863E-02    0.889E-03
DAV:   2    -0.161829666362E+04   -0.32230E-05   -0.25897E-05  8768   0.808E-03    0.633E-03
DAV:   3    -0.161829666558E+04   -0.19560E-05   -0.91678E-06  6420   0.449E-03    0.183E-03
DAV:   4    -0.161829666681E+04   -0.12318E-05   -0.41131E-06  6272   0.354E-03    0.871E-04
DAV:   5    -0.161829666684E+04   -0.32401E-07   -0.21642E-06  6272   0.267E-03
  21 F= -.16182967E+04 E0= -.16182998E+04  d E =-.488939E-04
       N       E                     dE             d eps       ncg     rms          rms(c)
DAV:   1    -0.161829671258E+04   -0.45772E-04   -0.59035E-03 12148   0.976E-02    0.105E-02
DAV:   2    -0.161829671063E+04    0.19528E-05   -0.49778E-05 11720   0.964E-03    0.753E-03
DAV:   3    -0.161829670736E+04    0.32668E-05   -0.86227E-06  6442   0.487E-03    0.385E-03
DAV:   4    -0.161829670480E+04    0.25585E-05   -0.36013E-06  6272   0.371E-03    0.116E-03
DAV:   5    -0.161829670461E+04    0.19380E-06   -0.15634E-06  6272   0.271E-03
  22 F= -.16182967E+04 E0= -.16182999E+04  d E =-.377679E-04
       N       E                     dE             d eps       ncg     rms          rms(c)
DAV:   1    -0.161829670423E+04    0.57420E-06   -0.90048E-05 11936   0.152E-02    0.541E-03
DAV:   2    -0.161829670769E+04   -0.34623E-05   -0.23522E-06  6254   0.256E-03    0.252E-03
DAV:   3    -0.161829671040E+04   -0.27068E-05   -0.11212E-06  6248   0.184E-03    0.119E-03
DAV:   4    -0.161829671202E+04   -0.16211E-05   -0.46761E-07  6236   0.140E-03    0.541E-04
DAV:   5    -0.161829671277E+04   -0.75063E-06   -0.20700E-07  6236   0.947E-04
  23 F= -.16182967E+04 E0= -.16182999E+04  d E =-.816051E-05
       N       E                     dE             d eps       ncg     rms          rms(c)
DAV:   1    -0.161829674367E+04   -0.31652E-04   -0.33602E-03 12136   0.735E-02    0.717E-03
DAV:   2    -0.161829674347E+04    0.20406E-06   -0.17604E-05  6576   0.679E-03    0.521E-03
DAV:   3    -0.161829674226E+04    0.12098E-05   -0.63859E-06  6272   0.370E-03    0.138E-03
DAV:   4    -0.161829674216E+04    0.99303E-07   -0.28936E-06  6254   0.285E-03    0.706E-04
DAV:   5    -0.161829674232E+04   -0.16423E-06   -0.15388E-06  6230   0.220E-03
  24 F= -.16182967E+04 E0= -.16182999E+04  d E =-.295523E-04
       N       E                     dE             d eps       ncg     rms          rms(c)
DAV:   1    -0.161829679254E+04   -0.50387E-04   -0.22427E-02 12052   0.190E-01    0.187E-02
DAV:   2    -0.161829680790E+04   -0.15355E-04   -0.19248E-04 17400   0.178E-02    0.142E-02
DAV:   3    -0.161829680642E+04    0.14768E-05   -0.15562E-05  7438   0.625E-03    0.458E-03
DAV:   4    -0.161829680816E+04   -0.17405E-05   -0.52740E-06  6664   0.512E-03    0.189E-03
DAV:   5    -0.161829680775E+04    0.41092E-06   -0.14915E-06  6404   0.315E-03
  25 F= -.16182968E+04 E0= -.16183000E+04  d E =-.654306E-04
       N       E                     dE             d eps       ncg     rms          rms(c)
DAV:   1    -0.161829678305E+04    0.25114E-04   -0.87175E-03 12076   0.119E-01    0.134E-02
DAV:   2    -0.161829677661E+04    0.64393E-05   -0.61305E-05 12968   0.110E-02    0.925E-03
DAV:   3    -0.161829676906E+04    0.75486E-05   -0.96859E-06  6254   0.492E-03    0.391E-03
DAV:   4    -0.161829676543E+04    0.36285E-05   -0.35084E-06  6272   0.373E-03    0.131E-03
DAV:   5    -0.161829676525E+04    0.17833E-06   -0.13650E-06  6254   0.273E-03
  26 F= -.16182968E+04 E0= -.16182999E+04  d E =0.424979E-04
       N       E                     dE             d eps       ncg     rms          rms(c)
DAV:   1    -0.161829679550E+04   -0.30069E-04   -0.57901E-03 12100   0.966E-02    0.918E-03
DAV:   2    -0.161829679713E+04   -0.16332E-05   -0.28434E-05  7728   0.877E-03    0.672E-03
DAV:   3    -0.161829679711E+04    0.19843E-07   -0.96000E-06  6242   0.465E-03    0.130E-03
DAV:   4    -0.161829679761E+04   -0.49465E-06   -0.36078E-06  6254   0.335E-03    0.967E-04
DAV:   5    -0.161829679764E+04   -0.28574E-07   -0.18343E-06  6254   0.246E-03
  27 F= -.16182968E+04 E0= -.16183000E+04  d E =-.323836E-04
       N       E                     dE             d eps       ncg     rms          rms(c)
DAV:   1    -0.161829683466E+04   -0.37056E-04   -0.21582E-02 12052   0.186E-01    0.178E-02
DAV:   2    -0.161829684562E+04   -0.10952E-04   -0.18540E-04 17360   0.175E-02    0.137E-02
DAV:   3    -0.161829684022E+04    0.54009E-05   -0.14372E-05  7400   0.615E-03    0.474E-03
DAV:   4    -0.161829683953E+04    0.68563E-06   -0.55528E-06  6520   0.522E-03    0.214E-03
DAV:   5    -0.161829683940E+04    0.12633E-06   -0.14623E-06  6322   0.314E-03
  28 F= -.16182968E+04 E0= -.16183000E+04  d E =-.417669E-04
       N       E                     dE             d eps       ncg     rms          rms(c)
DAV:   1    -0.161829683524E+04    0.42859E-05   -0.46245E-04 12172   0.306E-02    0.795E-03
DAV:   2    -0.161829683951E+04   -0.42630E-05   -0.63746E-06  6254   0.411E-03    0.390E-03
DAV:   3    -0.161829684333E+04   -0.38221E-05   -0.28453E-06  6242   0.280E-03    0.178E-03
DAV:   4    -0.161829684584E+04   -0.25092E-05   -0.12071E-06  6236   0.213E-03    0.832E-04
DAV:   5    -0.161829684680E+04   -0.96045E-06   -0.55950E-07  6236   0.155E-03
  29 F= -.16182968E+04 E0= -.16183000E+04  d E =-.739519E-05
       N       E                     dE             d eps       ncg     rms          rms(c)
DAV:   1    -0.161829686148E+04   -0.15643E-04   -0.22777E-04 12140   0.219E-02    0.623E-03
DAV:   2    -0.161829685438E+04    0.71032E-05   -0.34980E-06  6236   0.307E-03    0.302E-03
DAV:   3    -0.161829685072E+04    0.36611E-05   -0.15785E-06  6230   0.211E-03    0.142E-03
DAV:   4    -0.161829684860E+04    0.21127E-05   -0.64920E-07  6236   0.155E-03    0.626E-04
DAV:   5    -0.161829684786E+04    0.73998E-06   -0.28689E-07  6236   0.114E-03
  30 F= -.16182968E+04 E0= -.16183000E+04  d E =-.106567E-05
       N       E                     dE             d eps       ncg     rms          rms(c)
DAV:   1    -0.161829685094E+04   -0.23326E-05   -0.37740E-04 12032   0.246E-02    0.246E-03
DAV:   2    -0.161829685110E+04   -0.16564E-06   -0.22032E-06  6236   0.240E-03    0.180E-03
DAV:   3    -0.161829685118E+04   -0.75073E-07   -0.82824E-07  6218   0.144E-03    0.713E-04
DAV:   4    -0.161829685126E+04   -0.80653E-07   -0.43954E-07  6236   0.121E-03    0.288E-04
DAV:   5    -0.161829685127E+04   -0.77580E-08   -0.23468E-07  6236   0.846E-04
  31 F= -.16182969E+04 E0= -.16183000E+04  d E =-.340170E-05
       N       E                     dE             d eps       ncg     rms          rms(c)
DAV:   1    -0.161829686141E+04   -0.10152E-04   -0.57987E-03 12058   0.966E-02    0.943E-03
DAV:   2    -0.161829686138E+04    0.28895E-07   -0.35796E-05  9720   0.906E-03    0.694E-03
DAV:   3    -0.161829685939E+04    0.19881E-05   -0.97308E-06  6436   0.482E-03    0.248E-03
DAV:   4    -0.161829685880E+04    0.59077E-06   -0.42628E-06  6272   0.373E-03    0.959E-04
DAV:   5    -0.161829685901E+04   -0.20312E-06   -0.20943E-06  6242   0.278E-03
  32 F= -.16182969E+04 E0= -.16183000E+04  d E =-.774013E-05
