       N       E                     dE             d eps       ncg     rms          rms(c)
DAV:   1     0.218417895908E+04    0.21842E+04   -0.28918E+05 11592   0.143E+03
DAV:   2    -0.119573324048E+04   -0.33799E+04   -0.32443E+04 13444   0.295E+02
DAV:   3    -0.162274465737E+04   -0.42701E+03   -0.39342E+03 17920   0.818E+01
DAV:   4    -0.164710693040E+04   -0.24362E+02   -0.22669E+02 16200   0.172E+01
DAV:   5    -0.164817074117E+04   -0.10638E+01   -0.10444E+01 17784   0.422E+00    0.404E+01
DAV:   6    -0.160413884271E+04    0.44032E+02   -0.85806E+01 17496   0.122E+01    0.219E+01
DAV:   7    -0.159602913663E+04    0.81097E+01   -0.79424E+01 16888   0.140E+01    0.163E+01
DAV:   8    -0.158435793132E+04    0.11671E+02   -0.49773E+01 17456   0.123E+01    0.813E+00
DAV:   9    -0.158104409037E+04    0.33138E+01   -0.19022E+01 17224   0.679E+00    0.251E+00
DAV:  10    -0.158102927969E+04    0.14811E-01   -0.33292E+00 16232   0.258E+00    0.154E+00
DAV:  11    -0.158102173717E+04    0.75425E-02   -0.46368E-01 15808   0.100E+00    0.108E+00
DAV:  12    -0.158099998527E+04    0.21752E-01   -0.17769E-01 15144   0.702E-01    0.601E-01
DAV:  13    -0.158098786859E+04    0.12117E-01   -0.55877E-02 15288   0.405E-01    0.311E-01
DAV:  14    -0.158098485728E+04    0.30113E-02   -0.18846E-02 15360   0.184E-01    0.118E-01
DAV:  15    -0.158098463856E+04    0.21872E-03   -0.35355E-03 15928   0.937E-02    0.700E-02
DAV:  16    -0.158098450813E+04    0.13043E-03   -0.11324E-03 15360   0.561E-02    0.402E-02
DAV:  17    -0.158098447047E+04    0.37661E-04   -0.49852E-04 14016   0.347E-02    0.207E-02
DAV:  18    -0.158098444916E+04    0.21312E-04   -0.11065E-04 13464   0.173E-02    0.105E-02
DAV:  19    -0.158098444202E+04    0.71327E-05   -0.23102E-05  7696   0.889E-03
   1 F= -.15809844E+04 E0= -.15809902E+04  d E =-.158098E+04
       N       E                     dE             d eps       ncg     rms          rms(c)
DAV:   1    -0.158793052967E+04   -0.69461E+01   -0.16615E+03 11592   0.611E+01    0.227E+01
DAV:   2    -0.156860093696E+04    0.19330E+02   -0.12191E+02 18304   0.136E+01    0.136E+01
DAV:   3    -0.156315385869E+04    0.54471E+01   -0.61225E+01 20176   0.103E+01    0.921E+00
DAV:   4    -0.155980100163E+04    0.33529E+01   -0.18661E+01 19424   0.664E+00    0.633E+00
DAV:   5    -0.155803745706E+04    0.17635E+01   -0.11449E+01 17640   0.432E+00    0.251E+00
DAV:   6    -0.155782246628E+04    0.21499E+00   -0.27185E+00 17424   0.231E+00    0.140E+00
DAV:   7    -0.155779060114E+04    0.31865E-01   -0.48030E-01 15968   0.108E+00    0.977E-01
DAV:   8    -0.155778147214E+04    0.91290E-02   -0.15926E-01 17320   0.481E-01    0.514E-01
DAV:   9    -0.155778861666E+04   -0.71445E-02   -0.82174E-02 17912   0.300E-01    0.299E-01
DAV:  10    -0.155779017803E+04   -0.15614E-02   -0.19041E-02 17032   0.211E-01    0.227E-01
DAV:  11    -0.155778847847E+04    0.16996E-02   -0.89132E-03 19168   0.139E-01    0.107E-01
DAV:  12    -0.155778838806E+04    0.90405E-04   -0.49256E-03 18568   0.820E-02    0.575E-02
DAV:  13    -0.155778858460E+04   -0.19654E-03   -0.83537E-04 16648   0.392E-02    0.365E-02
DAV:  14    -0.155778860795E+04   -0.23350E-04   -0.36891E-04 18344   0.280E-02    0.195E-02
DAV:  15    -0.155778861085E+04   -0.28950E-05   -0.10020E-04 13768   0.140E-02    0.120E-02
DAV:  16    -0.155778861328E+04   -0.24304E-05   -0.28136E-05  7448   0.839E-03
   2 F= -.15577886E+04 E0= -.15577893E+04  d E =0.231958E+02
       N       E                     dE             d eps       ncg     rms          rms(c)
DAV:   1    -0.160130916213E+04   -0.43521E+02   -0.74955E+02 11592   0.457E+01    0.154E+01
DAV:   2    -0.159088869539E+04    0.10420E+02   -0.29737E+01 16504   0.806E+00    0.713E+00
DAV:   3    -0.158943868854E+04    0.14500E+01   -0.13461E+01 17224   0.542E+00    0.549E+00
DAV:   4    -0.158805114980E+04    0.13875E+01   -0.60190E+00 17920   0.438E+00    0.313E+00
DAV:   5    -0.158755666779E+04    0.49448E+00   -0.31768E+00 16512   0.272E+00    0.101E+00
DAV:   6    -0.158753881544E+04    0.17852E-01   -0.59005E-01 14672   0.116E+00    0.611E-01
DAV:   7    -0.158754505621E+04   -0.62408E-02   -0.93272E-02 15704   0.442E-01    0.435E-01
DAV:   8    -0.158754867407E+04   -0.36179E-02   -0.23697E-02 16024   0.216E-01    0.245E-01
DAV:   9    -0.158755643175E+04   -0.77577E-02   -0.24675E-02 16856   0.184E-01    0.188E-01
DAV:  10    -0.158755586244E+04    0.56931E-03   -0.53234E-03 16496   0.119E-01    0.893E-02
DAV:  11    -0.158755578768E+04    0.74764E-04   -0.19626E-03 17376   0.588E-02    0.409E-02
DAV:  12    -0.158755597643E+04   -0.18875E-03   -0.97321E-04 16680   0.408E-02    0.386E-02
DAV:  13    -0.158755603293E+04   -0.56501E-04   -0.21962E-04 15464   0.206E-02    0.209E-02
DAV:  14    -0.158755602434E+04    0.85867E-05   -0.59086E-05 11656   0.110E-02
   3 F= -.15875560E+04 E0= -.15875433E+04  d E =-.297674E+02
       N       E                     dE             d eps       ncg     rms          rms(c)
DAV:   1    -0.158769171174E+04   -0.13568E+00   -0.16980E+01 11592   0.544E+00    0.726E-01
DAV:   2    -0.158770588313E+04   -0.14171E-01   -0.32309E-01 17072   0.712E-01    0.529E-01
DAV:   3    -0.158769716792E+04    0.87152E-02   -0.69373E-02 18552   0.439E-01    0.371E-01
DAV:   4    -0.158769355576E+04    0.36122E-02   -0.18933E-02 18344   0.219E-01    0.230E-01
DAV:   5    -0.158769220345E+04    0.13523E-02   -0.10262E-02 15632   0.147E-01    0.909E-02
DAV:   6    -0.158769206245E+04    0.14101E-03   -0.29829E-03 16032   0.880E-02    0.499E-02
DAV:   7    -0.158769200317E+04    0.59273E-04   -0.75967E-04 16040   0.469E-02    0.334E-02
DAV:   8    -0.158769197147E+04    0.31705E-04   -0.20406E-04 15904   0.219E-02    0.196E-02
DAV:   9    -0.158769196675E+04    0.47182E-05   -0.67648E-05 12888   0.121E-02
   4 F= -.15876920E+04 E0= -.15876799E+04  d E =-.135942E+00
       N       E                     dE             d eps       ncg     rms          rms(c)
DAV:   1    -0.158771728061E+04   -0.25309E-01   -0.29957E+00 11628   0.230E+00    0.409E-01
DAV:   2    -0.158771850368E+04   -0.12231E-02   -0.80713E-02 17712   0.402E-01    0.314E-01
DAV:   3    -0.158771354525E+04    0.49584E-02   -0.28744E-02 18824   0.287E-01    0.181E-01
DAV:   4    -0.158771238263E+04    0.11626E-02   -0.56225E-03 18032   0.117E-01    0.118E-01
DAV:   5    -0.158771193607E+04    0.44656E-03   -0.26232E-03 15848   0.756E-02    0.566E-02
DAV:   6    -0.158771182758E+04    0.10850E-03   -0.94033E-04 15624   0.503E-02    0.296E-02
DAV:   7    -0.158771180254E+04    0.25033E-04   -0.23929E-04 15592   0.265E-02    0.190E-02
DAV:   8    -0.158771180471E+04   -0.21634E-05   -0.59264E-05 11744   0.113E-02
   5 F= -.15877118E+04 E0= -.15876992E+04  d E =-.198380E-01
       N       E                     dE             d eps       ncg     rms          rms(c)
DAV:   1    -0.158772051160E+04   -0.87091E-02   -0.39854E-01 11724   0.940E-01    0.240E-01
DAV:   2    -0.158771834904E+04    0.21626E-02   -0.84366E-03 16432   0.122E-01    0.117E-01
DAV:   3    -0.158771808327E+04    0.26576E-03   -0.31046E-03 17664   0.827E-02    0.865E-02
DAV:   4    -0.158771779927E+04    0.28400E-03   -0.14815E-03 18120   0.671E-02    0.497E-02
DAV:   5    -0.158771774684E+04    0.52435E-04   -0.76179E-04 16392   0.426E-02    0.173E-02
DAV:   6    -0.158771774925E+04   -0.24096E-05   -0.13011E-04 14136   0.186E-02    0.119E-02
DAV:   7    -0.158771774741E+04    0.18381E-05   -0.22051E-05  7488   0.820E-03
   6 F= -.15877177E+04 E0= -.15877057E+04  d E =-.594270E-02
       N       E                     dE             d eps       ncg     rms          rms(c)
DAV:   1    -0.158772468262E+04   -0.69334E-02   -0.47226E-01 11664   0.918E-01    0.168E-01
DAV:   2    -0.158772471261E+04   -0.29988E-04   -0.11680E-02 17688   0.160E-01    0.130E-01
DAV:   3    -0.158772382424E+04    0.88836E-03   -0.46817E-03 18808   0.118E-01    0.746E-02
DAV:   4    -0.158772360267E+04    0.22157E-03   -0.91928E-04 17120   0.467E-02    0.473E-02
DAV:   5    -0.158772350025E+04    0.10242E-03   -0.44632E-04 15600   0.321E-02    0.220E-02
DAV:   6    -0.158772347378E+04    0.26462E-04   -0.14836E-04 15064   0.208E-02    0.120E-02
DAV:   7    -0.158772346832E+04    0.54600E-05   -0.31217E-05  8520   0.109E-02
   7 F= -.15877235E+04 E0= -.15877112E+04  d E =-.572092E-02
       N       E                     dE             d eps       ncg     rms          rms(c)
DAV:   1    -0.158772594826E+04   -0.24745E-02   -0.28437E-01 11676   0.693E-01    0.788E-02
DAV:   2    -0.158772629021E+04   -0.34195E-03   -0.37381E-03 17464   0.900E-02    0.741E-02
DAV:   3    -0.158772604355E+04    0.24665E-03   -0.11039E-03 18242   0.585E-02    0.456E-02
DAV:   4    -0.158772601543E+04    0.28124E-04   -0.24248E-04 16688   0.233E-02    0.256E-02
DAV:   5    -0.158772600796E+04    0.74689E-05   -0.13911E-04 14752   0.186E-02    0.931E-03
DAV:   6    -0.158772600527E+04    0.26911E-05   -0.29231E-05  8392   0.106E-02
   8 F= -.15877260E+04 E0= -.15877138E+04  d E =-.253694E-02
       N       E                     dE             d eps       ncg     rms          rms(c)
DAV:   1    -0.158772728339E+04   -0.12754E-02   -0.90504E-02 11712   0.401E-01    0.683E-02
DAV:   2    -0.158772719881E+04    0.84575E-04   -0.15362E-03 17136   0.575E-02    0.478E-02
DAV:   3    -0.158772710135E+04    0.97467E-04   -0.59301E-04 18810   0.419E-02    0.320E-02
DAV:   4    -0.158772704643E+04    0.54917E-04   -0.14170E-04 15800   0.189E-02    0.190E-02
DAV:   5    -0.158772701693E+04    0.29496E-04   -0.71444E-05 13000   0.134E-02    0.808E-03
DAV:   6    -0.158772701032E+04    0.66188E-05   -0.17455E-05  7224   0.855E-03
   9 F= -.15877270E+04 E0= -.15877148E+04  d E =-.100505E-02
       N       E                     dE             d eps       ncg     rms          rms(c)
DAV:   1    -0.158772803762E+04   -0.10207E-02   -0.63128E-02 11688   0.332E-01    0.467E-02
DAV:   2    -0.158772805271E+04   -0.15089E-04   -0.66006E-04 16696   0.348E-02    0.302E-02
DAV:   3    -0.158772804688E+04    0.58251E-05   -0.16261E-04 17050   0.217E-02    0.242E-02
DAV:   4    -0.158772804012E+04    0.67589E-05   -0.60495E-05 11936   0.135E-02    0.104E-02
DAV:   5    -0.158772804789E+04   -0.77650E-05   -0.23388E-05  7178   0.879E-03
  10 F= -.15877280E+04 E0= -.15877159E+04  d E =-.103757E-02
       N       E                     dE             d eps       ncg     rms          rms(c)
DAV:   1    -0.158772908272E+04   -0.10426E-02   -0.10262E-01 11688   0.415E-01    0.436E-02
DAV:   2    -0.158772913423E+04   -0.51513E-04   -0.10123E-03 16952   0.438E-02    0.356E-02
DAV:   3    -0.158772909885E+04    0.35387E-04   -0.20265E-04 17242   0.251E-02    0.262E-02
DAV:   4    -0.158772907652E+04    0.22325E-04   -0.60131E-05 11760   0.121E-02    0.132E-02
DAV:   5    -0.158772906711E+04    0.94135E-05   -0.26023E-05  7696   0.928E-03
  11 F= -.15877291E+04 E0= -.15877169E+04  d E =-.101922E-02
       N       E                     dE             d eps       ncg     rms          rms(c)
DAV:   1    -0.158773000270E+04   -0.92618E-03   -0.12463E-01 11688   0.458E-01    0.459E-02
DAV:   2    -0.158773007517E+04   -0.72476E-04   -0.10778E-03 16784   0.422E-02    0.342E-02
DAV:   3    -0.158773006580E+04    0.93716E-05   -0.13030E-04 16026   0.196E-02    0.272E-02
DAV:   4    -0.158773005708E+04    0.87178E-05   -0.71341E-05 12792   0.140E-02    0.830E-03
DAV:   5    -0.158773005969E+04   -0.26095E-05   -0.18392E-05  7160   0.831E-03
  12 F= -.15877301E+04 E0= -.15877180E+04  d E =-.992584E-03
       N       E                     dE             d eps       ncg     rms          rms(c)
DAV:   1    -0.158773032304E+04   -0.26596E-03   -0.61292E-03 11760   0.112E-01    0.279E-02
DAV:   2    -0.158773027070E+04    0.52344E-04   -0.13657E-04 15888   0.162E-02    0.141E-02
DAV:   3    -0.158773025687E+04    0.13826E-04   -0.41221E-05  9688   0.117E-02    0.101E-02
DAV:   4    -0.158773024456E+04    0.12313E-04   -0.14700E-05  7640   0.905E-03    0.569E-03
DAV:   5    -0.158773023507E+04    0.94895E-05   -0.78748E-06  6216   0.537E-03
  13 F= -.15877302E+04 E0= -.15877181E+04  d E =-.175380E-03
       N       E                     dE             d eps       ncg     rms          rms(c)
DAV:   1    -0.158773086186E+04   -0.61730E-03   -0.62581E-02 11688   0.324E-01    0.312E-02
DAV:   2    -0.158773089821E+04   -0.36351E-04   -0.51575E-04 16936   0.287E-02    0.239E-02
DAV:   3    -0.158773089368E+04    0.45284E-05   -0.40560E-05  9952   0.119E-02    0.185E-02
DAV:   4    -0.158773088998E+04    0.36958E-05   -0.37169E-05  9344   0.107E-02    0.410E-03
DAV:   5    -0.158773089013E+04   -0.14128E-06   -0.75348E-06  6424   0.611E-03
  14 F= -.15877309E+04 E0= -.15877188E+04  d E =-.655054E-03
       N       E                     dE             d eps       ncg     rms          rms(c)
DAV:   1    -0.158773166520E+04   -0.77522E-03   -0.12395E-01 11664   0.455E-01    0.438E-02
DAV:   2    -0.158773171280E+04   -0.47597E-04   -0.10659E-03 17064   0.410E-02    0.332E-02
DAV:   3    -0.158773169745E+04    0.15343E-04   -0.10832E-04 15188   0.175E-02    0.259E-02
DAV:   4    -0.158773167127E+04    0.26189E-04   -0.63426E-05 12280   0.135E-02    0.105E-02
DAV:   5    -0.158773166434E+04    0.69289E-05   -0.22627E-05  7384   0.870E-03
  15 F= -.15877317E+04 E0= -.15877196E+04  d E =-.774211E-03
       N       E                     dE             d eps       ncg     rms          rms(c)
DAV:   1    -0.158773168309E+04   -0.11822E-04   -0.16125E-03 11760   0.655E-02    0.223E-02
DAV:   2    -0.158773168157E+04    0.15185E-05   -0.61586E-05 11864   0.126E-02    0.108E-02
DAV:   3    -0.158773168456E+04   -0.29949E-05   -0.22571E-05  7992   0.104E-02    0.815E-03
DAV:   4    -0.158773168751E+04   -0.29427E-05   -0.72467E-06  7016   0.691E-03    0.378E-03
DAV:   5    -0.158773169274E+04   -0.52354E-05   -0.41757E-06  6072   0.360E-03
  16 F= -.15877317E+04 E0= -.15877197E+04  d E =-.284055E-04
       N       E                     dE             d eps       ncg     rms          rms(c)
DAV:   1    -0.158773215862E+04   -0.47111E-03   -0.46466E-02 11688   0.279E-01    0.277E-02
DAV:   2    -0.158773216798E+04   -0.93680E-05   -0.38970E-04 16960   0.247E-02    0.203E-02
DAV:   3    -0.158773215876E+04    0.92267E-05   -0.29564E-05  8842   0.100E-02    0.146E-02
DAV:   4    -0.158773214800E+04    0.10753E-04   -0.19444E-05  7808   0.958E-03    0.626E-03
DAV:   5    -0.158773214416E+04    0.38429E-05   -0.92331E-06  6338   0.654E-03
  17 F= -.15877321E+04 E0= -.15877201E+04  d E =-.451419E-03
       N       E                     dE             d eps       ncg     rms          rms(c)
DAV:   1    -0.158773260397E+04   -0.45597E-03   -0.67244E-02 11664   0.335E-01    0.308E-02
DAV:   2    -0.158773264366E+04   -0.39683E-04   -0.55942E-04 17056   0.292E-02    0.235E-02
DAV:   3    -0.158773263842E+04    0.52407E-05   -0.40890E-05 10116   0.111E-02    0.142E-02
DAV:   4    -0.158773263562E+04    0.27935E-05   -0.25080E-05  8280   0.108E-02    0.430E-03
DAV:   5    -0.158773263503E+04    0.59405E-06   -0.70121E-06  6408   0.648E-03
  18 F= -.15877326E+04 E0= -.15877206E+04  d E =-.490868E-03
       N       E                     dE             d eps       ncg     rms          rms(c)
DAV:   1    -0.158773284736E+04   -0.21174E-03   -0.14319E-02 11700   0.158E-01    0.233E-02
DAV:   2    -0.158773282228E+04    0.25080E-04   -0.17130E-04 16560   0.165E-02    0.137E-02
DAV:   3    -0.158773281178E+04    0.10501E-04   -0.24239E-05  8148   0.922E-03    0.976E-03
DAV:   4    -0.158773280348E+04    0.82999E-05   -0.11691E-05  7048   0.815E-03    0.589E-03
DAV:   5    -0.158773279593E+04    0.75534E-05   -0.69528E-06  6136   0.506E-03
  19 F= -.15877328E+04 E0= -.15877208E+04  d E =-.160899E-03
       N       E                     dE             d eps       ncg     rms          rms(c)
DAV:   1    -0.158773298251E+04   -0.17903E-03   -0.10757E-02 11688   0.136E-01    0.180E-02
DAV:   2    -0.158773299235E+04   -0.98381E-05   -0.10112E-04 15088   0.128E-02    0.114E-02
DAV:   3    -0.158773299546E+04   -0.31068E-05   -0.13221E-05  7234   0.691E-03    0.807E-03
DAV:   4    -0.158773299837E+04   -0.29162E-05   -0.67314E-06  6472   0.617E-03    0.394E-03
DAV:   5    -0.158773300174E+04   -0.33620E-05   -0.35902E-06  6048   0.371E-03
  20 F= -.15877330E+04 E0= -.15877210E+04  d E =-.205808E-03
       N       E                     dE             d eps       ncg     rms          rms(c)
DAV:   1    -0.158773324931E+04   -0.25094E-03   -0.26309E-02 11676   0.210E-01    0.199E-02
DAV:   2    -0.158773325934E+04   -0.10029E-04   -0.22071E-04 16856   0.183E-02    0.150E-02
DAV:   3    -0.158773325397E+04    0.53738E-05   -0.14148E-05  7386   0.701E-03    0.908E-03
DAV:   4    -0.158773324991E+04    0.40601E-05   -0.10321E-05  6928   0.727E-03    0.308E-03
DAV:   5    -0.158773324918E+04    0.72414E-06   -0.34506E-06  6136   0.451E-03
  21 F= -.15877332E+04 E0= -.15877213E+04  d E =-.247447E-03
       N       E                     dE             d eps       ncg     rms          rms(c)
DAV:   1    -0.158773360085E+04   -0.35095E-03   -0.84091E-02 11616   0.375E-01    0.362E-02
DAV:   2    -0.158773364838E+04   -0.47528E-04   -0.70025E-04 17080   0.328E-02    0.267E-02
DAV:   3    -0.158773364309E+04    0.52953E-05   -0.59432E-05 11930   0.122E-02    0.157E-02
DAV:   4    -0.158773364273E+04    0.35489E-06   -0.30064E-05  8936   0.114E-02    0.639E-03
DAV:   5    -0.158773364246E+04    0.27465E-06   -0.10445E-05  6966   0.753E-03
  22 F= -.15877336E+04 E0= -.15877217E+04  d E =-.393275E-03
       N       E                     dE             d eps       ncg     rms          rms(c)
DAV:   1    -0.158773359398E+04    0.48754E-04   -0.65832E-03 11676   0.109E-01    0.189E-02
DAV:   2    -0.158773356800E+04    0.25982E-04   -0.68415E-05 13144   0.119E-02    0.105E-02
DAV:   3    -0.158773355998E+04    0.80141E-05   -0.16053E-05  7534   0.790E-03    0.777E-03
DAV:   4    -0.158773355175E+04    0.82339E-05   -0.59980E-06  6168   0.614E-03    0.400E-03
DAV:   5    -0.158773354611E+04    0.56385E-05   -0.39437E-06  6048   0.362E-03
  23 F= -.15877335E+04 E0= -.15877216E+04  d E =0.963480E-04
       N       E                     dE             d eps       ncg     rms          rms(c)
DAV:   1    -0.158773373276E+04   -0.18101E-03   -0.22821E-02 11676   0.195E-01    0.178E-02
DAV:   2    -0.158773374496E+04   -0.12199E-04   -0.17132E-04 16416   0.167E-02    0.136E-02
DAV:   3    -0.158773374341E+04    0.15485E-05   -0.12022E-05  7208   0.657E-03    0.795E-03
DAV:   4    -0.158773374334E+04    0.69509E-07   -0.90261E-06  6568   0.664E-03    0.238E-03
DAV:   5    -0.158773374313E+04    0.21013E-06   -0.24362E-06  6048   0.375E-03
  24 F= -.15877337E+04 E0= -.15877218E+04  d E =-.197017E-03
       N       E                     dE             d eps       ncg     rms          rms(c)
DAV:   1    -0.158773403947E+04   -0.29613E-03   -0.85041E-02 11616   0.377E-01    0.352E-02
DAV:   2    -0.158773407400E+04   -0.34537E-04   -0.70639E-04 17128   0.328E-02    0.266E-02
DAV:   3    -0.158773405888E+04    0.15125E-04   -0.56674E-05 11618   0.118E-02    0.159E-02
DAV:   4    -0.158773404924E+04    0.96371E-05   -0.30299E-05  8888   0.115E-02    0.639E-03
DAV:   5    -0.158773404605E+04    0.31909E-05   -0.10297E-05  7096   0.798E-03
  25 F= -.15877340E+04 E0= -.15877221E+04  d E =-.302924E-03
       N       E                     dE             d eps       ncg     rms          rms(c)
DAV:   1    -0.158773394850E+04    0.10074E-03   -0.10349E-02 11676   0.134E-01    0.199E-02
DAV:   2    -0.158773395380E+04   -0.52991E-05   -0.97655E-05 14128   0.136E-02    0.118E-02
DAV:   3    -0.158773395611E+04   -0.23098E-05   -0.18150E-05  7668   0.824E-03    0.873E-03
DAV:   4    -0.158773395805E+04   -0.19407E-05   -0.75216E-06  6400   0.667E-03    0.476E-03
DAV:   5    -0.158773396234E+04   -0.42910E-05   -0.48357E-06  6048   0.408E-03
  26 F= -.15877340E+04 E0= -.15877220E+04  d E =0.837112E-04
       N       E                     dE             d eps       ncg     rms          rms(c)
DAV:   1    -0.158773412821E+04   -0.17016E-03   -0.23226E-02 11646   0.197E-01    0.192E-02
DAV:   2    -0.158773412966E+04   -0.14453E-05   -0.18020E-04 16472   0.172E-02    0.140E-02
DAV:   3    -0.158773412323E+04    0.64299E-05   -0.13156E-05  7200   0.673E-03    0.924E-03
DAV:   4    -0.158773411746E+04    0.57720E-05   -0.93434E-06  6592   0.678E-03    0.389E-03
DAV:   5    -0.158773411538E+04    0.20788E-05   -0.39754E-06  6036   0.450E-03
  27 F= -.15877341E+04 E0= -.15877222E+04  d E =-.153037E-03
       N       E                     dE             d eps       ncg     rms          rms(c)
DAV:   1    -0.158773423466E+04   -0.11720E-03   -0.20579E-02 11616   0.185E-01    0.169E-02
DAV:   2    -0.158773424745E+04   -0.12793E-04   -0.17311E-04 16552   0.162E-02    0.130E-02
DAV:   3    -0.158773424596E+04    0.14865E-05   -0.10300E-05  7132   0.630E-03    0.831E-03
DAV:   4    -0.158773424535E+04    0.61587E-06   -0.85671E-06  6400   0.631E-03    0.229E-03
DAV:   5    -0.158773424526E+04    0.90399E-07   -0.24321E-06  6048   0.375E-03
  28 F= -.15877342E+04 E0= -.15877223E+04  d E =-.129880E-03
       N       E                     dE             d eps       ncg     rms          rms(c)
DAV:   1    -0.158773434093E+04   -0.95580E-04   -0.14518E-02 11628   0.157E-01    0.186E-02
DAV:   2    -0.158773433088E+04    0.10050E-04   -0.14273E-04 16224   0.149E-02    0.121E-02
DAV:   3    -0.158773432381E+04    0.70621E-05   -0.14116E-05  7280   0.689E-03    0.843E-03
DAV:   4    -0.158773431802E+04    0.57922E-05   -0.73869E-06  6336   0.639E-03    0.491E-03
DAV:   5    -0.158773431313E+04    0.48882E-05   -0.44141E-06  6048   0.433E-03
  29 F= -.15877343E+04 E0= -.15877224E+04  d E =-.678781E-04
       N       E                     dE             d eps       ncg     rms          rms(c)
DAV:   1    -0.158773431909E+04   -0.10625E-05   -0.38928E-04 11712   0.318E-02    0.102E-02
DAV:   2    -0.158773432359E+04   -0.45009E-05   -0.86609E-06  6030   0.491E-03    0.475E-03
DAV:   3    -0.158773432731E+04   -0.37267E-05   -0.38730E-06  6018   0.456E-03    0.357E-03
DAV:   4    -0.158773432959E+04   -0.22790E-05   -0.18125E-06  6030   0.337E-03    0.138E-03
DAV:   5    -0.158773433174E+04   -0.21504E-05   -0.91683E-07  6030   0.164E-03
  30 F= -.15877343E+04 E0= -.15877224E+04  d E =-.186077E-04
       N       E                     dE             d eps       ncg     rms          rms(c)
DAV:   1    -0.158773438536E+04   -0.55763E-04   -0.56047E-03 11628   0.967E-02    0.897E-03
DAV:   2    -0.158773438584E+04   -0.48557E-06   -0.30401E-05  8560   0.838E-03    0.656E-03
DAV:   3    -0.158773438527E+04    0.57450E-06   -0.93165E-06  6084   0.478E-03    0.369E-03
DAV:   4    -0.158773438463E+04    0.63655E-06   -0.49985E-06  6048   0.414E-03    0.107E-03
DAV:   5    -0.158773438477E+04   -0.14419E-06   -0.24880E-06  6018   0.278E-03
  31 F= -.15877344E+04 E0= -.15877225E+04  d E =-.530316E-04
       N       E                     dE             d eps       ncg     rms          rms(c)
DAV:   1    -0.158773450406E+04   -0.11943E-03   -0.61492E-02 11604   0.320E-01    0.300E-02
DAV:   2    -0.158773454064E+04   -0.36579E-04   -0.52221E-04 17096   0.280E-02    0.227E-02
DAV:   3    -0.158773453525E+04    0.53857E-05   -0.39109E-05  9882   0.104E-02    0.126E-02
DAV:   4    -0.158773453407E+04    0.11802E-05   -0.21480E-05  8152   0.102E-02    0.446E-03
DAV:   5    -0.158773453338E+04    0.68929E-06   -0.66953E-06  6442   0.630E-03
  32 F= -.15877345E+04 E0= -.15877227E+04  d E =-.148608E-03
       N       E                     dE             d eps       ncg     rms          rms(c)
DAV:   1    -0.158773446487E+04    0.69198E-04   -0.23629E-02 11604   0.199E-01    0.207E-02
DAV:   2    -0.158773446111E+04    0.37659E-05   -0.18200E-04 16480   0.174E-02    0.149E-02
DAV:   3    -0.158773445365E+04    0.74523E-05   -0.15011E-05  7500   0.737E-03    0.104E-02
DAV:   4    -0.158773444477E+04    0.88825E-05   -0.10601E-05  6616   0.719E-03    0.373E-03
DAV:   5    -0.158773444245E+04    0.23210E-05   -0.43076E-06  6030   0.444E-03
  33 F= -.15877344E+04 E0= -.15877226E+04  d E =0.909308E-04
       N       E                     dE             d eps       ncg     rms          rms(c)
DAV:   1    -0.158773450216E+04   -0.57386E-04   -0.10978E-02 11604   0.135E-01    0.127E-02
DAV:   2    -0.158773450701E+04   -0.48476E-05   -0.76972E-05 13696   0.115E-02    0.967E-03
DAV:   3    -0.158773450631E+04    0.69147E-06   -0.95860E-06  6030   0.552E-03    0.555E-03
DAV:   4    -0.158773450622E+04    0.95593E-07   -0.56176E-06  6048   0.499E-03    0.181E-03
DAV:   5    -0.158773450607E+04    0.14541E-06   -0.16097E-06  6030   0.282E-03
  34 F= -.15877345E+04 E0= -.15877226E+04  d E =-.636225E-04
       N       E                     dE             d eps       ncg     rms          rms(c)
DAV:   1    -0.158773460566E+04   -0.99440E-04   -0.78177E-02 11592   0.361E-01    0.333E-02
DAV:   2    -0.158773464187E+04   -0.36212E-04   -0.64918E-04 17080   0.313E-02    0.254E-02
DAV:   3    -0.158773462887E+04    0.13004E-04   -0.51297E-05 11122   0.113E-02    0.142E-02
DAV:   4    -0.158773462207E+04    0.67967E-05   -0.26751E-05  8488   0.110E-02    0.571E-03
DAV:   5    -0.158773461985E+04    0.22174E-05   -0.84865E-06  6848   0.735E-03
  35 F= -.15877346E+04 E0= -.15877228E+04  d E =-.113779E-03
       N       E                     dE             d eps       ncg     rms          rms(c)
DAV:   1    -0.158773455648E+04    0.65593E-04   -0.24130E-02 11604   0.202E-01    0.221E-02
DAV:   2    -0.158773456895E+04   -0.12474E-04   -0.19465E-04 16696   0.180E-02    0.155E-02
DAV:   3    -0.158773456851E+04    0.44556E-06   -0.17464E-05  7780   0.799E-03    0.112E-02
DAV:   4    -0.158773456887E+04   -0.36115E-06   -0.11122E-05  6920   0.752E-03    0.514E-03
DAV:   5    -0.158773457123E+04   -0.23628E-05   -0.58122E-06  6012   0.483E-03
  36 F= -.15877346E+04 E0= -.15877227E+04  d E =0.486228E-04
       N       E                     dE             d eps       ncg     rms          rms(c)
DAV:   1    -0.158773462967E+04   -0.60802E-04   -0.16420E-02 11604   0.166E-01    0.165E-02
DAV:   2    -0.158773462958E+04    0.92462E-07   -0.12540E-04 15912   0.143E-02    0.121E-02
DAV:   3    -0.158773462443E+04    0.51505E-05   -0.98845E-06  6652   0.596E-03    0.775E-03
DAV:   4    -0.158773461953E+04    0.48990E-05   -0.69702E-06  6120   0.596E-03    0.273E-03
DAV:   5    -0.158773461842E+04    0.11119E-05   -0.26228E-06  6012   0.370E-03
  37 F= -.15877346E+04 E0= -.15877228E+04  d E =-.471857E-04
       N       E                     dE             d eps       ncg     rms          rms(c)
DAV:   1    -0.158773463644E+04   -0.16913E-04   -0.37240E-03 11628   0.788E-02    0.708E-03
DAV:   2    -0.158773463797E+04   -0.15333E-05   -0.20684E-05  7544   0.710E-03    0.524E-03
DAV:   3    -0.158773463841E+04   -0.44053E-06   -0.70295E-06  6036   0.425E-03    0.364E-03
DAV:   4    -0.158773463871E+04   -0.29980E-06   -0.42806E-06  6012   0.359E-03    0.710E-04
DAV:   5    -0.158773463890E+04   -0.18592E-06   -0.21326E-06  6012   0.251E-03
  38 F= -.15877346E+04 E0= -.15877228E+04  d E =-.204840E-04
       N       E                     dE             d eps       ncg     rms          rms(c)
DAV:   1    -0.158773466535E+04   -0.26632E-04   -0.11716E-02 11604   0.140E-01    0.139E-02
DAV:   2    -0.158773466595E+04   -0.59997E-06   -0.11066E-04 15904   0.128E-02    0.102E-02
DAV:   3    -0.158773466181E+04    0.41368E-05   -0.77047E-06  6444   0.489E-03    0.643E-03
DAV:   4    -0.158773465846E+04    0.33448E-05   -0.45054E-06  6096   0.491E-03    0.293E-03
DAV:   5    -0.158773465694E+04    0.15202E-05   -0.20744E-06  6000   0.347E-03
  39 F= -.15877347E+04 E0= -.15877228E+04  d E =-.180439E-04
       N       E                     dE             d eps       ncg     rms          rms(c)
DAV:   1    -0.158773464385E+04    0.14611E-04   -0.37136E-03 11604   0.792E-02    0.887E-03
DAV:   2    -0.158773464738E+04   -0.35272E-05   -0.19221E-05  6424   0.698E-03    0.580E-03
DAV:   3    -0.158773464959E+04   -0.22078E-05   -0.66196E-06  6000   0.410E-03    0.336E-03
DAV:   4    -0.158773465107E+04   -0.14840E-05   -0.33073E-06  6012   0.346E-03    0.150E-03
DAV:   5    -0.158773465183E+04   -0.75339E-06   -0.17658E-06  6012   0.233E-03
  40 F= -.15877347E+04 E0= -.15877228E+04  d E =0.511813E-05
       N       E                     dE             d eps       ncg     rms          rms(c)
DAV:   1    -0.158773466014E+04   -0.90710E-05   -0.13459E-03 11628   0.475E-02    0.423E-03
DAV:   2    -0.158773466058E+04   -0.43931E-06   -0.56136E-06  5976   0.385E-03    0.307E-03
DAV:   3    -0.158773466066E+04   -0.78958E-07   -0.15668E-06  5964   0.206E-03    0.187E-03
DAV:   4    -0.158773466077E+04   -0.10932E-06   -0.92323E-07  5976   0.184E-03    0.453E-04
DAV:   5    -0.158773466077E+04    0.50341E-09   -0.38746E-07  5976   0.113E-03
  41 F= -.15877347E+04 E0= -.15877228E+04  d E =-.894470E-05
       N       E                     dE             d eps       ncg     rms          rms(c)
DAV:   1    -0.158773467396E+04   -0.13194E-04   -0.31465E-03 11616   0.728E-02    0.786E-03
DAV:   2    -0.158773466996E+04    0.40035E-05   -0.18610E-05  6528   0.672E-03    0.515E-03
DAV:   3    -0.158773466787E+04    0.20884E-05   -0.66490E-06  6000   0.406E-03    0.304E-03
DAV:   4    -0.158773466637E+04    0.15015E-05   -0.33584E-06  6012   0.336E-03    0.160E-03
DAV:   5    -0.158773466566E+04    0.71558E-06   -0.19380E-06  6006   0.241E-03
  42 F= -.15877347E+04 E0= -.15877228E+04  d E =-.488529E-05
       N       E                     dE             d eps       ncg     rms          rms(c)
DAV:   1    -0.158773466085E+04    0.55205E-05   -0.59922E-04 11628   0.326E-02    0.490E-03
DAV:   2    -0.158773466358E+04   -0.27331E-05   -0.36674E-06  5958   0.313E-03    0.268E-03
DAV:   3    -0.158773466506E+04   -0.14728E-05   -0.12163E-06  5934   0.215E-03    0.187E-03
DAV:   4    -0.158773466605E+04   -0.99194E-06   -0.48927E-07  5958   0.159E-03    0.940E-04
DAV:   5    -0.158773466700E+04   -0.95006E-06   -0.25865E-07  5958   0.898E-04
  43 F= -.15877347E+04 E0= -.15877228E+04  d E =-.134295E-05
       N       E                     dE             d eps       ncg     rms          rms(c)
DAV:   1    -0.158773467164E+04   -0.55958E-05   -0.56600E-04 11640   0.307E-02    0.272E-03
DAV:   2    -0.158773467176E+04   -0.11641E-06   -0.27176E-06  5922   0.263E-03    0.201E-03
DAV:   3    -0.158773467176E+04   -0.10441E-08   -0.84925E-07  5910   0.148E-03    0.140E-03
DAV:   4    -0.158773467171E+04    0.49073E-07   -0.54391E-07  5922   0.128E-03    0.290E-04
DAV:   5    -0.158773467172E+04   -0.12067E-07   -0.24622E-07  5922   0.851E-04
  44 F= -.15877347E+04 E0= -.15877228E+04  d E =-.472620E-05
       N       E                     dE             d eps       ncg     rms          rms(c)
DAV:   1    -0.158773468424E+04   -0.12528E-04   -0.93378E-03 11604   0.125E-01    0.115E-02
DAV:   2    -0.158773468807E+04   -0.38273E-05   -0.73970E-05 13864   0.109E-02    0.881E-03
DAV:   3    -0.158773468660E+04    0.14716E-05   -0.84316E-06  6276   0.500E-03    0.479E-03
DAV:   4    -0.158773468571E+04    0.88263E-06   -0.41638E-06  6088   0.438E-03    0.169E-03
DAV:   5    -0.158773468560E+04    0.11098E-06   -0.13865E-06  5994   0.266E-03
  45 F= -.15877347E+04 E0= -.15877229E+04  d E =-.138782E-04
       N       E                     dE             d eps       ncg     rms          rms(c)
DAV:   1    -0.158773468952E+04   -0.38013E-05   -0.50504E-03 11604   0.917E-02    0.826E-03
DAV:   2    -0.158773469095E+04   -0.14301E-05   -0.29725E-05  8560   0.808E-03    0.611E-03
DAV:   3    -0.158773469098E+04   -0.38031E-07   -0.94101E-06  6110   0.465E-03    0.342E-03
DAV:   4    -0.158773469089E+04    0.95528E-07   -0.51053E-06  6012   0.402E-03    0.968E-04
DAV:   5    -0.158773469108E+04   -0.19133E-06   -0.26301E-06  5994   0.280E-03
  46 F= -.15877347E+04 E0= -.15877229E+04  d E =-.547618E-05
