       N       E                     dE             d eps       ncg     rms          rms(c)
DAV:   1     0.270952359562E+04    0.27095E+04   -0.31573E+05 12492   0.145E+03
DAV:   2    -0.119132721421E+04   -0.39009E+04   -0.37295E+04 14274   0.343E+02
DAV:   3    -0.170309341422E+04   -0.51177E+03   -0.48697E+03 19080   0.832E+01
DAV:   4    -0.172854643741E+04   -0.25453E+02   -0.24723E+02 17368   0.186E+01
DAV:   5    -0.172964528304E+04   -0.10988E+01   -0.10821E+01 19512   0.393E+00    0.465E+01
DAV:   6    -0.167016650880E+04    0.59479E+02   -0.11837E+02 18032   0.146E+01    0.241E+01
DAV:   7    -0.165420212801E+04    0.15964E+02   -0.75298E+01 17704   0.141E+01    0.134E+01
DAV:   8    -0.164518477188E+04    0.90174E+01   -0.39233E+01 17672   0.115E+01    0.393E+00
DAV:   9    -0.164493194871E+04    0.25282E+00   -0.11390E+01 18000   0.526E+00    0.203E+00
DAV:  10    -0.164491063420E+04    0.21315E-01   -0.14243E+00 15576   0.182E+00    0.142E+00
DAV:  11    -0.164486963184E+04    0.41002E-01   -0.46643E-01 17304   0.864E-01    0.672E-01
DAV:  12    -0.164485651573E+04    0.13116E-01   -0.58882E-02 17624   0.338E-01    0.292E-01
DAV:  13    -0.164485392456E+04    0.25912E-02   -0.15365E-02 17848   0.184E-01    0.952E-02
DAV:  14    -0.164485399455E+04   -0.69991E-04   -0.32376E-03 14896   0.870E-02    0.404E-02
DAV:  15    -0.164485403151E+04   -0.36955E-04   -0.49298E-04 15328   0.406E-02    0.216E-02
DAV:  16    -0.164485402519E+04    0.63215E-05   -0.12589E-04 15136   0.211E-02    0.114E-02
DAV:  17    -0.164485401413E+04    0.11055E-04   -0.39505E-05  9976   0.103E-02    0.479E-03
DAV:  18    -0.164485400515E+04    0.89799E-05   -0.13539E-05  8232   0.569E-03
   1 F= -.16448540E+04 E0= -.16448560E+04  d E =-.164485E+04
       N       E                     dE             d eps       ncg     rms          rms(c)
DAV:   1    -0.164542550511E+04   -0.57149E+00   -0.15933E+02 12460   0.159E+01    0.273E+00
DAV:   2    -0.164531494829E+04    0.11056E+00   -0.31665E+00 17336   0.251E+00    0.149E+00
DAV:   3    -0.164525386148E+04    0.61087E-01   -0.54654E-01 17112   0.116E+00    0.101E+00
DAV:   4    -0.164522319531E+04    0.30666E-01   -0.14411E-01 16912   0.722E-01    0.495E-01
DAV:   5    -0.164521545528E+04    0.77400E-02   -0.66240E-02 15752   0.463E-01    0.177E-01
DAV:   6    -0.164521579420E+04   -0.33893E-03   -0.12954E-02 15784   0.179E-01    0.125E-01
DAV:   7    -0.164521570715E+04    0.87049E-04   -0.27305E-03 15952   0.699E-02    0.669E-02
DAV:   8    -0.164521576528E+04   -0.58122E-04   -0.69869E-04 15392   0.390E-02    0.259E-02
DAV:   9    -0.164521573724E+04    0.28039E-04   -0.14645E-04 16112   0.222E-02    0.136E-02
DAV:  10    -0.164521572914E+04    0.80937E-05   -0.70248E-05 14024   0.113E-02
   2 F= -.16452157E+04 E0= -.16452248E+04  d E =-.361724E+00
       N       E                     dE             d eps       ncg     rms          rms(c)
DAV:   1    -0.164563482155E+04   -0.41908E+00   -0.17446E+01 12460   0.652E+00    0.219E+00
DAV:   2    -0.164540866520E+04    0.22616E+00   -0.34111E-01 13632   0.858E-01    0.105E+00
DAV:   3    -0.164535036355E+04    0.58302E-01   -0.15125E-01 14582   0.599E-01    0.345E-01
DAV:   4    -0.164534457155E+04    0.57920E-02   -0.38088E-02 15456   0.371E-01    0.120E-01
DAV:   5    -0.164534420237E+04    0.36918E-03   -0.10407E-02 15446   0.194E-01    0.582E-02
DAV:   6    -0.164534454487E+04   -0.34250E-03   -0.22639E-03 16896   0.665E-02    0.417E-02
DAV:   7    -0.164534467892E+04   -0.13406E-03   -0.32032E-04 16240   0.251E-02    0.232E-02
DAV:   8    -0.164534476619E+04   -0.87266E-04   -0.95975E-05 14184   0.139E-02    0.999E-03
DAV:   9    -0.164534479346E+04   -0.27274E-04   -0.32163E-05  9392   0.888E-03    0.418E-03
DAV:  10    -0.164534480025E+04   -0.67880E-05   -0.11232E-05  7584   0.549E-03
   3 F= -.16453448E+04 E0= -.16453476E+04  d E =-.129071E+00
       N       E                     dE             d eps       ncg     rms          rms(c)
DAV:   1    -0.164553612214E+04   -0.19133E+00   -0.68710E+00 12460   0.368E+00    0.966E-01
DAV:   2    -0.164549925967E+04    0.36862E-01   -0.10850E-01 16272   0.522E-01    0.509E-01
DAV:   3    -0.164548956468E+04    0.96950E-02   -0.45946E-02 16816   0.358E-01    0.308E-01
DAV:   4    -0.164548352684E+04    0.60378E-02   -0.22864E-02 16528   0.295E-01    0.714E-02
DAV:   5    -0.164548354062E+04   -0.13784E-04   -0.53611E-03 15192   0.123E-01    0.476E-02
DAV:   6    -0.164548360411E+04   -0.63492E-04   -0.80117E-04 16424   0.404E-02    0.316E-02
DAV:   7    -0.164548362357E+04   -0.19460E-04   -0.16923E-04 16792   0.165E-02    0.161E-02
DAV:   8    -0.164548362224E+04    0.13386E-05   -0.39721E-05 10760   0.937E-03
   4 F= -.16454836E+04 E0= -.16454890E+04  d E =-.138822E+00
       N       E                     dE             d eps       ncg     rms          rms(c)
DAV:   1    -0.164548706860E+04   -0.34450E-02   -0.73230E-01 12540   0.107E+00    0.136E-01
DAV:   2    -0.164548749806E+04   -0.42946E-03   -0.11497E-02 17408   0.168E-01    0.847E-02
DAV:   3    -0.164548735056E+04    0.14750E-03   -0.18467E-03 17718   0.730E-02    0.628E-02
DAV:   4    -0.164548727372E+04    0.76840E-04   -0.43583E-04 17896   0.380E-02    0.321E-02
DAV:   5    -0.164548726172E+04    0.11993E-04   -0.21483E-04 14712   0.215E-02    0.898E-03
DAV:   6    -0.164548725934E+04    0.23846E-05   -0.22934E-05  8496   0.769E-03
   5 F= -.16454873E+04 E0= -.16454927E+04  d E =-.363710E-02
       N       E                     dE             d eps       ncg     rms          rms(c)
DAV:   1    -0.164548788765E+04   -0.62593E-03   -0.94685E-02 12607   0.387E-01    0.535E-02
DAV:   2    -0.164548792640E+04   -0.38742E-04   -0.13598E-03 16752   0.637E-02    0.328E-02
DAV:   3    -0.164548790617E+04    0.20223E-04   -0.28198E-04 17987   0.296E-02    0.242E-02
DAV:   4    -0.164548790059E+04    0.55868E-05   -0.68187E-05 14312   0.150E-02    0.106E-02
DAV:   5    -0.164548790585E+04   -0.52653E-05   -0.23312E-05  7896   0.778E-03
   6 F= -.16454879E+04 E0= -.16454933E+04  d E =-.646514E-03
       N       E                     dE             d eps       ncg     rms          rms(c)
DAV:   1    -0.164548814508E+04   -0.24449E-03   -0.31307E-02 12586   0.227E-01    0.375E-02
DAV:   2    -0.164548809358E+04    0.51501E-04   -0.39153E-04 15928   0.381E-02    0.223E-02
DAV:   3    -0.164548806671E+04    0.26870E-04   -0.10430E-04 15832   0.194E-02    0.159E-02
DAV:   4    -0.164548803835E+04    0.28352E-04   -0.33191E-05  8976   0.114E-02    0.435E-03
DAV:   5    -0.164548803459E+04    0.37617E-05   -0.11190E-05  7160   0.609E-03
   7 F= -.16454880E+04 E0= -.16454935E+04  d E =-.128741E-03
       N       E                     dE             d eps       ncg     rms          rms(c)
DAV:   1    -0.164548813273E+04   -0.94374E-04   -0.44895E-03 12692   0.966E-02    0.280E-02
DAV:   2    -0.164548812467E+04    0.80572E-05   -0.60108E-05 13952   0.118E-02    0.142E-02
DAV:   3    -0.164548813522E+04   -0.10550E-04   -0.22904E-05  7422   0.787E-03    0.414E-03
DAV:   4    -0.164548814100E+04   -0.57787E-05   -0.75014E-06  6992   0.558E-03    0.131E-03
DAV:   5    -0.164548814286E+04   -0.18570E-05   -0.29242E-06  6840   0.363E-03
   8 F= -.16454881E+04 E0= -.16454935E+04  d E =-.108264E-03
       N       E                     dE             d eps       ncg     rms          rms(c)
DAV:   1    -0.164548821394E+04   -0.72937E-04   -0.64209E-03 12610   0.101E-01    0.142E-02
DAV:   2    -0.164548820498E+04    0.89598E-05   -0.66514E-05 14872   0.157E-02    0.918E-03
DAV:   3    -0.164548819951E+04    0.54664E-05   -0.13579E-05  8728   0.766E-03    0.662E-03
DAV:   4    -0.164548819143E+04    0.80837E-05   -0.88777E-06  6880   0.464E-03    0.132E-03
DAV:   5    -0.164548819118E+04    0.24977E-06   -0.22796E-06  6736   0.311E-03
   9 F= -.16454882E+04 E0= -.16454936E+04  d E =-.483205E-04
       N       E                     dE             d eps       ncg     rms          rms(c)
DAV:   1    -0.164548821379E+04   -0.22366E-04   -0.33748E-03 12602   0.727E-02    0.838E-03
DAV:   2    -0.164548821706E+04   -0.32663E-05   -0.22609E-05  9056   0.949E-03    0.581E-03
DAV:   3    -0.164548821779E+04   -0.73377E-06   -0.61850E-06  7056   0.562E-03    0.415E-03
DAV:   4    -0.164548822052E+04   -0.27247E-05   -0.47807E-06  6680   0.389E-03    0.744E-04
DAV:   5    -0.164548822043E+04    0.87678E-07   -0.19607E-06  6680   0.275E-03
  10 F= -.16454882E+04 E0= -.16454936E+04  d E =-.292524E-04
       N       E                     dE             d eps       ncg     rms          rms(c)
DAV:   1    -0.164548823670E+04   -0.16181E-04   -0.80845E-04 12650   0.374E-02    0.764E-03
DAV:   2    -0.164548822851E+04    0.81925E-05   -0.79283E-06  6680   0.511E-03    0.424E-03
DAV:   3    -0.164548822468E+04    0.38259E-05   -0.34074E-06  6659   0.397E-03    0.234E-03
DAV:   4    -0.164548822129E+04    0.33915E-05   -0.20650E-06  6680   0.300E-03    0.652E-04
DAV:   5    -0.164548822088E+04    0.40565E-06   -0.97383E-07  6675   0.190E-03
  11 F= -.16454882E+04 E0= -.16454936E+04  d E =-.453415E-06
       N       E                     dE             d eps       ncg     rms          rms(c)
DAV:   1    -0.164548822808E+04   -0.67960E-05   -0.64487E-04 12602   0.327E-02    0.566E-03
DAV:   2    -0.164548823144E+04   -0.33517E-05   -0.50729E-06  6578   0.386E-03    0.332E-03
DAV:   3    -0.164548823451E+04   -0.30754E-05   -0.22901E-06  6554   0.272E-03    0.121E-03
DAV:   4    -0.164548823582E+04   -0.13064E-05   -0.10432E-06  6578   0.220E-03    0.498E-04
DAV:   5    -0.164548823612E+04   -0.29943E-06   -0.54109E-07  6554   0.135E-03
  12 F= -.16454882E+04 E0= -.16454936E+04  d E =-.152346E-04
       N       E                     dE             d eps       ncg     rms          rms(c)
DAV:   1    -0.164548824569E+04   -0.98702E-05   -0.10062E-03 12586   0.396E-02    0.431E-03
DAV:   2    -0.164548824501E+04    0.68055E-06   -0.62295E-06  6515   0.438E-03    0.307E-03
DAV:   3    -0.164548824455E+04    0.46165E-06   -0.20052E-06  6507   0.259E-03    0.189E-03
DAV:   4    -0.164548824376E+04    0.79104E-06   -0.13292E-06  6515   0.212E-03    0.372E-04
DAV:   5    -0.164548824393E+04   -0.17281E-06   -0.64157E-07  6515   0.149E-03
  13 F= -.16454882E+04 E0= -.16454936E+04  d E =-.781034E-05
       N       E                     dE             d eps       ncg     rms          rms(c)
DAV:   1    -0.164548824790E+04   -0.41406E-05   -0.10214E-03 12576   0.402E-02    0.510E-03
DAV:   2    -0.164548825060E+04   -0.27057E-05   -0.66352E-06  6722   0.433E-03    0.335E-03
DAV:   3    -0.164548825309E+04   -0.24839E-05   -0.26991E-06  6477   0.263E-03    0.988E-04
DAV:   4    -0.164548825393E+04   -0.84436E-06   -0.12088E-06  6443   0.209E-03    0.446E-04
DAV:   5    -0.164548825397E+04   -0.39788E-07   -0.65992E-07  6438   0.147E-03
  14 F= -.16454883E+04 E0= -.16454936E+04  d E =-.100416E-04
       N       E                     dE             d eps       ncg     rms          rms(c)
DAV:   1    -0.164548825879E+04   -0.48593E-05   -0.39350E-05 10614   0.984E-03    0.322E-03
DAV:   2    -0.164548825529E+04    0.35020E-05   -0.13218E-06  6537   0.209E-03    0.158E-03
DAV:   3    -0.164548825279E+04    0.24989E-05   -0.45176E-07  6443   0.110E-03    0.533E-04
DAV:   4    -0.164548825204E+04    0.74415E-06   -0.18334E-07  6443   0.949E-04    0.214E-04
DAV:   5    -0.164548825171E+04    0.33905E-06   -0.96470E-08  6443   0.525E-04
  15 F= -.16454883E+04 E0= -.16454936E+04  d E =0.226464E-05
       N       E                     dE             d eps       ncg     rms          rms(c)
DAV:   1    -0.164548825562E+04   -0.35727E-05   -0.50958E-04 12552   0.282E-02    0.294E-03
DAV:   2    -0.164548825617E+04   -0.55543E-06   -0.28228E-06  6419   0.284E-03    0.213E-03
DAV:   3    -0.164548825664E+04   -0.46525E-06   -0.10483E-06  6406   0.160E-03    0.460E-04
DAV:   4    -0.164548825682E+04   -0.17925E-06   -0.46086E-07  6404   0.123E-03    0.275E-04
DAV:   5    -0.164548825678E+04    0.39965E-07   -0.25598E-07  6396   0.876E-04
  16 F= -.16454883E+04 E0= -.16454936E+04  d E =-.507170E-05
       N       E                     dE             d eps       ncg     rms          rms(c)
DAV:   1    -0.164548826389E+04   -0.70768E-05   -0.17474E-03 12560   0.522E-02    0.556E-03
DAV:   2    -0.164548826260E+04    0.12947E-05   -0.98619E-06  6724   0.531E-03    0.396E-03
DAV:   3    -0.164548826090E+04    0.16978E-05   -0.34839E-06  6524   0.294E-03    0.118E-03
DAV:   4    -0.164548826038E+04    0.52108E-06   -0.16293E-06  6404   0.230E-03    0.440E-04
DAV:   5    -0.164548826062E+04   -0.24130E-06   -0.86963E-07  6404   0.167E-03
  17 F= -.16454883E+04 E0= -.16454937E+04  d E =-.384444E-05
       N       E                     dE             d eps       ncg     rms          rms(c)
DAV:   1    -0.164548825634E+04    0.40449E-05   -0.36159E-04 12488   0.245E-02    0.396E-03
DAV:   2    -0.164548825885E+04   -0.25192E-05   -0.19562E-06  6404   0.236E-03    0.231E-03
DAV:   3    -0.164548826096E+04   -0.21059E-05   -0.76261E-07  6396   0.139E-03    0.858E-04
DAV:   4    -0.164548826192E+04   -0.95959E-06   -0.26037E-07  6380   0.103E-03    0.337E-04
DAV:   5    -0.164548826209E+04   -0.17020E-06   -0.92557E-08  6380   0.623E-04
  18 F= -.16454883E+04 E0= -.16454936E+04  d E =-.146865E-05
       N       E                     dE             d eps       ncg     rms          rms(c)
DAV:   1    -0.164548826623E+04   -0.43091E-05   -0.53207E-04 12552   0.288E-02    0.299E-03
DAV:   2    -0.164548826551E+04    0.72140E-06   -0.26710E-06  6380   0.278E-03    0.213E-03
DAV:   3    -0.164548826460E+04    0.90563E-06   -0.89323E-07  6380   0.143E-03    0.500E-04
DAV:   4    -0.164548826439E+04    0.21522E-06   -0.36436E-07  6380   0.105E-03    0.231E-04
DAV:   5    -0.164548826448E+04   -0.93471E-07   -0.18768E-07  6380   0.765E-04
  19 F= -.16454883E+04 E0= -.16454937E+04  d E =-.239013E-05
       N       E                     dE             d eps       ncg     rms          rms(c)
DAV:   1    -0.164548826666E+04   -0.22737E-05   -0.69769E-04 12560   0.329E-02    0.341E-03
DAV:   2    -0.164548826717E+04   -0.50668E-06   -0.39684E-06  6380   0.336E-03    0.249E-03
DAV:   3    -0.164548826755E+04   -0.38485E-06   -0.16448E-06  6380   0.188E-03    0.359E-04
DAV:   4    -0.164548826760E+04   -0.45226E-07   -0.63889E-07  6380   0.123E-03    0.215E-04
DAV:   5    -0.164548826762E+04   -0.18431E-07   -0.34933E-07  6380   0.939E-04
  20 F= -.16454883E+04 E0= -.16454937E+04  d E =-.313545E-05
