       N       E                     dE             d eps       ncg     rms          rms(c)
DAV:   1     0.212037331385E+04    0.21204E+04   -0.28612E+05 11508   0.143E+03
DAV:   2    -0.119598990945E+04   -0.33164E+04   -0.31833E+04 13342   0.288E+02
DAV:   3    -0.161296336253E+04   -0.41697E+03   -0.38295E+03 17784   0.817E+01
DAV:   4    -0.163731890748E+04   -0.24356E+02   -0.22560E+02 16120   0.170E+01
DAV:   5    -0.163839058020E+04   -0.10717E+01   -0.10510E+01 17576   0.425E+00    0.404E+01
DAV:   6    -0.159626675015E+04    0.42124E+02   -0.13160E+02 17568   0.151E+01    0.226E+01
DAV:   7    -0.158379721857E+04    0.12470E+02   -0.95703E+01 16256   0.147E+01    0.163E+01
DAV:   8    -0.157627544113E+04    0.75218E+01   -0.50807E+01 16520   0.120E+01    0.981E+00
DAV:   9    -0.157056585328E+04    0.57096E+01   -0.22144E+01 17096   0.811E+00    0.326E+00
DAV:  10    -0.157036427246E+04    0.20158E+00   -0.51730E+00 16728   0.310E+00    0.156E+00
DAV:  11    -0.157036335936E+04    0.91310E-03   -0.70271E-01 15440   0.118E+00    0.112E+00
DAV:  12    -0.157034935031E+04    0.14009E-01   -0.22984E-01 16160   0.758E-01    0.776E-01
DAV:  13    -0.157032851167E+04    0.20839E-01   -0.81219E-02 15784   0.486E-01    0.412E-01
DAV:  14    -0.157032256694E+04    0.59447E-02   -0.30735E-02 16344   0.227E-01    0.162E-01
DAV:  15    -0.157032203932E+04    0.52763E-03   -0.77118E-03 16624   0.130E-01    0.817E-02
DAV:  16    -0.157032187780E+04    0.16152E-03   -0.22267E-03 15768   0.723E-02    0.433E-02
DAV:  17    -0.157032185377E+04    0.24031E-04   -0.71213E-04 15816   0.389E-02    0.283E-02
DAV:  18    -0.157032182151E+04    0.32260E-04   -0.18939E-04 15376   0.216E-02    0.176E-02
DAV:  19    -0.157032180166E+04    0.19850E-04   -0.56434E-05 10752   0.132E-02    0.100E-02
DAV:  20    -0.157032179122E+04    0.10443E-04   -0.24405E-05  7304   0.804E-03    0.461E-03
DAV:  21    -0.157032178686E+04    0.43604E-05   -0.12860E-05  6880   0.651E-03
   1 F= -.15703218E+04 E0= -.15703236E+04  d E =-.157032E+04
       N       E                     dE             d eps       ncg     rms          rms(c)
DAV:   1    -0.157589288456E+04   -0.55711E+01   -0.18527E+03 11508   0.654E+01    0.237E+01
DAV:   2    -0.155406563400E+04    0.21827E+02   -0.12452E+02 18152   0.150E+01    0.140E+01
DAV:   3    -0.154645381519E+04    0.76118E+01   -0.66965E+01 19424   0.108E+01    0.908E+00
DAV:   4    -0.154451748200E+04    0.19363E+01   -0.20309E+01 19128   0.685E+00    0.722E+00
DAV:   5    -0.154191302320E+04    0.26045E+01   -0.13409E+01 18920   0.515E+00    0.282E+00
DAV:   6    -0.154166562518E+04    0.24740E+00   -0.35166E+00 17168   0.247E+00    0.156E+00
DAV:   7    -0.154163472239E+04    0.30903E-01   -0.56272E-01 15672   0.110E+00    0.112E+00
DAV:   8    -0.154162134843E+04    0.13374E-01   -0.19904E-01 17632   0.538E-01    0.567E-01
DAV:   9    -0.154162828202E+04   -0.69336E-02   -0.10403E-01 17832   0.342E-01    0.326E-01
DAV:  10    -0.154162830707E+04   -0.25051E-04   -0.22583E-02 16496   0.218E-01    0.195E-01
DAV:  11    -0.154162754645E+04    0.76061E-03   -0.81315E-03 18624   0.126E-01    0.112E-01
DAV:  12    -0.154162749485E+04    0.51598E-04   -0.42716E-03 18176   0.822E-02    0.653E-02
DAV:  13    -0.154162779796E+04   -0.30310E-03   -0.14380E-03 15672   0.474E-02    0.425E-02
DAV:  14    -0.154162786561E+04   -0.67651E-04   -0.48648E-04 18000   0.302E-02    0.236E-02
DAV:  15    -0.154162787318E+04   -0.75745E-05   -0.15922E-04 15512   0.176E-02    0.148E-02
DAV:  16    -0.154162787720E+04   -0.40168E-05   -0.38905E-05  8160   0.914E-03
   2 F= -.15416279E+04 E0= -.15416353E+04  d E =0.286939E+02
       N       E                     dE             d eps       ncg     rms          rms(c)
DAV:   1    -0.159336372599E+04   -0.51736E+02   -0.88701E+02 11508   0.500E+01    0.165E+01
DAV:   2    -0.158169583407E+04    0.11668E+02   -0.34587E+01 16715   0.928E+00    0.795E+00
DAV:   3    -0.157935951476E+04    0.23363E+01   -0.18012E+01 16080   0.604E+00    0.568E+00
DAV:   4    -0.157821965437E+04    0.11399E+01   -0.70490E+00 17224   0.466E+00    0.364E+00
DAV:   5    -0.157748717474E+04    0.73248E+00   -0.37699E+00 17096   0.326E+00    0.134E+00
DAV:   6    -0.157744156018E+04    0.45615E-01   -0.10099E+00 16056   0.147E+00    0.731E-01
DAV:   7    -0.157744586400E+04   -0.43038E-02   -0.15021E-01 15328   0.586E-01    0.560E-01
DAV:   8    -0.157744846599E+04   -0.26020E-02   -0.38926E-02 15976   0.284E-01    0.328E-01
DAV:   9    -0.157745938667E+04   -0.10921E-01   -0.41797E-02 16416   0.231E-01    0.223E-01
DAV:  10    -0.157745867235E+04    0.71432E-03   -0.73111E-03 16088   0.142E-01    0.115E-01
DAV:  11    -0.157745844340E+04    0.22895E-03   -0.28103E-03 16888   0.733E-02    0.525E-02
DAV:  12    -0.157745874313E+04   -0.29973E-03   -0.15630E-03 16504   0.518E-02    0.457E-02
DAV:  13    -0.157745887911E+04   -0.13598E-03   -0.35060E-04 14400   0.267E-02    0.238E-02
DAV:  14    -0.157745887352E+04    0.55926E-05   -0.10603E-04 13560   0.137E-02    0.984E-03
DAV:  15    -0.157745886944E+04    0.40832E-05   -0.20769E-05  7096   0.742E-03
   3 F= -.15774589E+04 E0= -.15774485E+04  d E =-.358310E+02
       N       E                     dE             d eps       ncg     rms          rms(c)
DAV:   1    -0.157764648720E+04   -0.18761E+00   -0.17963E+01 11508   0.571E+00    0.826E-01
DAV:   2    -0.157764926640E+04   -0.27792E-02   -0.30405E-01 16672   0.682E-01    0.542E-01
DAV:   3    -0.157764334281E+04    0.59236E-02   -0.68362E-02 18688   0.419E-01    0.419E-01
DAV:   4    -0.157763752329E+04    0.58195E-02   -0.25394E-02 18360   0.261E-01    0.244E-01
DAV:   5    -0.157763568492E+04    0.18384E-02   -0.14469E-02 15992   0.176E-01    0.109E-01
DAV:   6    -0.157763547241E+04    0.21251E-03   -0.40146E-03 16128   0.102E-01    0.684E-02
DAV:   7    -0.157763535671E+04    0.11570E-03   -0.11345E-03 16032   0.555E-02    0.435E-02
DAV:   8    -0.157763532675E+04    0.29966E-04   -0.33256E-04 15872   0.257E-02    0.249E-02
DAV:   9    -0.157763533308E+04   -0.63292E-05   -0.11999E-04 15000   0.177E-02    0.179E-02
DAV:  10    -0.157763532707E+04    0.60093E-05   -0.51176E-05 10872   0.129E-02
   4 F= -.15776353E+04 E0= -.15776277E+04  d E =-.176458E+00
       N       E                     dE             d eps       ncg     rms          rms(c)
DAV:   1    -0.157766576873E+04   -0.30436E-01   -0.30483E+00 11508   0.231E+00    0.369E-01
DAV:   2    -0.157766720948E+04   -0.14407E-02   -0.74402E-02 17664   0.388E-01    0.285E-01
DAV:   3    -0.157766343150E+04    0.37780E-02   -0.23884E-02 18648   0.252E-01    0.174E-01
DAV:   4    -0.157766248287E+04    0.94863E-03   -0.50024E-03 18960   0.113E-01    0.120E-01
DAV:   5    -0.157766199050E+04    0.49237E-03   -0.25607E-03 16360   0.735E-02    0.629E-02
DAV:   6    -0.157766188907E+04    0.10143E-03   -0.10862E-03 16112   0.523E-02    0.380E-02
DAV:   7    -0.157766182516E+04    0.63915E-04   -0.34069E-04 15792   0.313E-02    0.200E-02
DAV:   8    -0.157766182687E+04   -0.17111E-05   -0.81216E-05 12952   0.126E-02
   5 F= -.15776618E+04 E0= -.15776534E+04  d E =-.264998E-01
       N       E                     dE             d eps       ncg     rms          rms(c)
DAV:   1    -0.157767077317E+04   -0.89480E-02   -0.77404E-01 11523   0.121E+00    0.205E-01
DAV:   2    -0.157767028915E+04    0.48402E-03   -0.11949E-02 16648   0.143E-01    0.127E-01
DAV:   3    -0.157767001232E+04    0.27683E-03   -0.36708E-03 18797   0.101E-01    0.101E-01
DAV:   4    -0.157766965342E+04    0.35890E-03   -0.15395E-03 17120   0.629E-02    0.513E-02
DAV:   5    -0.157766962321E+04    0.30208E-04   -0.78770E-04 15760   0.427E-02    0.261E-02
DAV:   6    -0.157766961008E+04    0.13132E-04   -0.22423E-04 15736   0.252E-02    0.156E-02
DAV:   7    -0.157766960404E+04    0.60370E-05   -0.46565E-05 10144   0.120E-02
   6 F= -.15776696E+04 E0= -.15776619E+04  d E =-.777717E-02
       N       E                     dE             d eps       ncg     rms          rms(c)
DAV:   1    -0.157767622634E+04   -0.66163E-02   -0.34440E-01 11520   0.804E-01    0.165E-01
DAV:   2    -0.157767575862E+04    0.46772E-03   -0.95656E-03 17616   0.147E-01    0.114E-01
DAV:   3    -0.157767516286E+04    0.59576E-03   -0.39279E-03 18752   0.103E-01    0.739E-02
DAV:   4    -0.157767493594E+04    0.22692E-03   -0.98778E-04 18544   0.503E-02    0.487E-02
DAV:   5    -0.157767480560E+04    0.13034E-03   -0.50335E-04 16264   0.334E-02    0.236E-02
DAV:   6    -0.157767477542E+04    0.30179E-04   -0.17943E-04 15624   0.217E-02    0.143E-02
DAV:   7    -0.157767476481E+04    0.10607E-04   -0.42390E-05  9704   0.122E-02    0.823E-03
DAV:   8    -0.157767476711E+04   -0.22999E-05   -0.14057E-05  6760   0.649E-03
   7 F= -.15776748E+04 E0= -.15776666E+04  d E =-.516307E-02
       N       E                     dE             d eps       ncg     rms          rms(c)
DAV:   1    -0.157767734953E+04   -0.25847E-02   -0.26696E-01 11514   0.677E-01    0.777E-02
DAV:   2    -0.157767765358E+04   -0.30404E-03   -0.38034E-03 17336   0.865E-02    0.690E-02
DAV:   3    -0.157767746264E+04    0.19093E-03   -0.99633E-04 18250   0.546E-02    0.441E-02
DAV:   4    -0.157767744100E+04    0.21640E-04   -0.24371E-04 16992   0.236E-02    0.298E-02
DAV:   5    -0.157767743299E+04    0.80122E-05   -0.16197E-04 15048   0.192E-02    0.124E-02
DAV:   6    -0.157767743009E+04    0.29061E-05   -0.44797E-05 10224   0.129E-02
   8 F= -.15776774E+04 E0= -.15776694E+04  d E =-.266298E-02
       N       E                     dE             d eps       ncg     rms          rms(c)
DAV:   1    -0.157767881615E+04   -0.13832E-02   -0.11671E-01 11538   0.453E-01    0.683E-02
DAV:   2    -0.157767880019E+04    0.15961E-04   -0.20311E-03 17384   0.663E-02    0.517E-02
DAV:   3    -0.157767868134E+04    0.11885E-03   -0.70168E-04 18546   0.448E-02    0.337E-02
DAV:   4    -0.157767863546E+04    0.45879E-04   -0.16827E-04 16992   0.205E-02    0.228E-02
DAV:   5    -0.157767860195E+04    0.33512E-04   -0.91758E-05 14016   0.149E-02    0.107E-02
DAV:   6    -0.157767859301E+04    0.89353E-05   -0.26701E-05  8080   0.104E-02
   9 F= -.15776786E+04 E0= -.15776704E+04  d E =-.116293E-02
       N       E                     dE             d eps       ncg     rms          rms(c)
DAV:   1    -0.157767935676E+04   -0.75481E-03   -0.43907E-02 11541   0.281E-01    0.435E-02
DAV:   2    -0.157767936169E+04   -0.49241E-05   -0.51030E-04 16528   0.304E-02    0.267E-02
DAV:   3    -0.157767936110E+04    0.58964E-06   -0.14038E-04 16482   0.203E-02    0.217E-02
DAV:   4    -0.157767935710E+04    0.40015E-05   -0.57940E-05 11248   0.133E-02    0.104E-02
DAV:   5    -0.157767936426E+04   -0.71633E-05   -0.22752E-05  7557   0.893E-03
  10 F= -.15776794E+04 E0= -.15776713E+04  d E =-.771243E-03
       N       E                     dE             d eps       ncg     rms          rms(c)
DAV:   1    -0.157768013983E+04   -0.78273E-03   -0.67110E-02 11526   0.338E-01    0.388E-02
DAV:   2    -0.157768016573E+04   -0.25904E-04   -0.79252E-04 17056   0.397E-02    0.314E-02
DAV:   3    -0.157768013026E+04    0.35469E-04   -0.19571E-04 17069   0.245E-02    0.219E-02
DAV:   4    -0.157768011425E+04    0.16009E-04   -0.45432E-05 10328   0.114E-02    0.142E-02
DAV:   5    -0.157768010123E+04    0.13019E-04   -0.25242E-05  7432   0.933E-03    0.484E-03
DAV:   6    -0.157768009973E+04    0.15066E-05   -0.76829E-06  6576   0.633E-03
  11 F= -.15776801E+04 E0= -.15776720E+04  d E =-.735470E-03
       N       E                     dE             d eps       ncg     rms          rms(c)
DAV:   1    -0.157768070617E+04   -0.60494E-03   -0.67127E-02 11520   0.337E-01    0.334E-02
DAV:   2    -0.157768075388E+04   -0.47711E-04   -0.61132E-04 16680   0.318E-02    0.258E-02
DAV:   3    -0.157768074524E+04    0.86433E-05   -0.76336E-05 13546   0.160E-02    0.202E-02
DAV:   4    -0.157768074539E+04   -0.14602E-06   -0.42019E-05  9808   0.106E-02    0.801E-03
DAV:   5    -0.157768074712E+04   -0.17332E-05   -0.13960E-05  6920   0.760E-03
  12 F= -.15776807E+04 E0= -.15776727E+04  d E =-.647392E-03
       N       E                     dE             d eps       ncg     rms          rms(c)
DAV:   1    -0.157768103076E+04   -0.28538E-03   -0.11727E-02 11544   0.145E-01    0.240E-02
DAV:   2    -0.157768100347E+04    0.27294E-04   -0.17198E-04 16760   0.185E-02    0.153E-02
DAV:   3    -0.157768099155E+04    0.11915E-04   -0.46355E-05 10154   0.129E-02    0.110E-02
DAV:   4    -0.157768098081E+04    0.10746E-04   -0.16225E-05  7192   0.835E-03    0.650E-03
DAV:   5    -0.157768097226E+04    0.85476E-05   -0.84959E-06  6192   0.583E-03
  13 F= -.15776810E+04 E0= -.15776729E+04  d E =-.225140E-03
       N       E                     dE             d eps       ncg     rms          rms(c)
DAV:   1    -0.157768137093E+04   -0.39012E-03   -0.35045E-02 11535   0.243E-01    0.241E-02
DAV:   2    -0.157768139665E+04   -0.25724E-04   -0.30649E-04 16728   0.225E-02    0.189E-02
DAV:   3    -0.157768139187E+04    0.47790E-05   -0.29155E-05  8789   0.110E-02    0.149E-02
DAV:   4    -0.157768139347E+04   -0.15986E-05   -0.23853E-05  6832   0.822E-03    0.480E-03
DAV:   5    -0.157768139477E+04   -0.12990E-05   -0.77485E-06  6488   0.631E-03
  14 F= -.15776814E+04 E0= -.15776734E+04  d E =-.422510E-03
       N       E                     dE             d eps       ncg     rms          rms(c)
DAV:   1    -0.157768182831E+04   -0.43484E-03   -0.50749E-02 11514   0.293E-01    0.280E-02
DAV:   2    -0.157768184650E+04   -0.18189E-04   -0.45952E-04 16856   0.276E-02    0.218E-02
DAV:   3    -0.157768183658E+04    0.99190E-05   -0.51708E-05 11119   0.135E-02    0.170E-02
DAV:   4    -0.157768182506E+04    0.11526E-04   -0.24311E-05  7472   0.908E-03    0.844E-03
DAV:   5    -0.157768181978E+04    0.52736E-05   -0.12605E-05  6560   0.748E-03
  15 F= -.15776818E+04 E0= -.15776738E+04  d E =-.425011E-03
       N       E                     dE             d eps       ncg     rms          rms(c)
DAV:   1    -0.157768195833E+04   -0.13327E-03   -0.66045E-03 11544   0.109E-01    0.159E-02
DAV:   2    -0.157768196765E+04   -0.93234E-05   -0.71060E-05 13328   0.117E-02    0.976E-03
DAV:   3    -0.157768196974E+04   -0.20902E-05   -0.16082E-05  7437   0.771E-03    0.752E-03
DAV:   4    -0.157768197345E+04   -0.37121E-05   -0.68633E-06  6248   0.562E-03    0.407E-03
DAV:   5    -0.157768197734E+04   -0.38841E-05   -0.36768E-06  6120   0.392E-03
  16 F= -.15776820E+04 E0= -.15776740E+04  d E =-.157555E-03
       N       E                     dE             d eps       ncg     rms          rms(c)
DAV:   1    -0.157768224827E+04   -0.27481E-03   -0.21534E-02 11532   0.191E-01    0.199E-02
DAV:   2    -0.157768224911E+04   -0.84103E-06   -0.20035E-04 16512   0.180E-02    0.148E-02
DAV:   3    -0.157768224326E+04    0.58469E-05   -0.18656E-05  7821   0.902E-03    0.114E-02
DAV:   4    -0.157768223579E+04    0.74703E-05   -0.12467E-05  6528   0.700E-03    0.562E-03
DAV:   5    -0.157768223175E+04    0.40374E-05   -0.64620E-06  6117   0.538E-03
  17 F= -.15776822E+04 E0= -.15776742E+04  d E =-.254415E-03
       N       E                     dE             d eps       ncg     rms          rms(c)
DAV:   1    -0.157768249142E+04   -0.25563E-03   -0.27873E-02 11526   0.217E-01    0.198E-02
DAV:   2    -0.157768251104E+04   -0.19613E-04   -0.23746E-04 16768   0.192E-02    0.154E-02
DAV:   3    -0.157768250941E+04    0.16221E-05   -0.14435E-05  7669   0.790E-03    0.122E-02
DAV:   4    -0.157768250969E+04   -0.27781E-06   -0.15235E-05  6536   0.699E-03    0.318E-03
DAV:   5    -0.157768251036E+04   -0.67218E-06   -0.45747E-06  6192   0.504E-03
  18 F= -.15776825E+04 E0= -.15776745E+04  d E =-.278611E-03
       N       E                     dE             d eps       ncg     rms          rms(c)
DAV:   1    -0.157768270376E+04   -0.19407E-03   -0.15794E-02 11532   0.164E-01    0.181E-02
DAV:   2    -0.157768269726E+04    0.64995E-05   -0.15439E-04 16240   0.159E-02    0.125E-02
DAV:   3    -0.157768269130E+04    0.59602E-05   -0.16482E-05  7546   0.802E-03    0.933E-03
DAV:   4    -0.157768268510E+04    0.62040E-05   -0.88666E-06  6352   0.654E-03    0.541E-03
DAV:   5    -0.157768268009E+04    0.50134E-05   -0.53480E-06  6120   0.479E-03
  19 F= -.15776827E+04 E0= -.15776746E+04  d E =-.169722E-03
       N       E                     dE             d eps       ncg     rms          rms(c)
DAV:   1    -0.157768279348E+04   -0.10838E-03   -0.61379E-03 11538   0.103E-01    0.125E-02
DAV:   2    -0.157768280140E+04   -0.79242E-05   -0.51375E-05 11160   0.980E-03    0.828E-03
DAV:   3    -0.157768280373E+04   -0.23249E-05   -0.10679E-05  6568   0.609E-03    0.629E-03
DAV:   4    -0.157768280680E+04   -0.30775E-05   -0.50116E-06  6072   0.447E-03    0.296E-03
DAV:   5    -0.157768280916E+04   -0.23561E-05   -0.25329E-06  6006   0.306E-03
  20 F= -.15776828E+04 E0= -.15776748E+04  d E =-.129075E-03
       N       E                     dE             d eps       ncg     rms          rms(c)
DAV:   1    -0.157768298854E+04   -0.18174E-03   -0.17197E-02 11526   0.170E-01    0.162E-02
DAV:   2    -0.157768299332E+04   -0.47759E-05   -0.15191E-04 16216   0.151E-02    0.123E-02
DAV:   3    -0.157768299007E+04    0.32444E-05   -0.10047E-05  7050   0.641E-03    0.921E-03
DAV:   4    -0.157768298526E+04    0.48171E-05   -0.80831E-06  6288   0.589E-03    0.337E-03
DAV:   5    -0.157768298388E+04    0.13716E-05   -0.33492E-06  6061   0.418E-03
  21 F= -.15776830E+04 E0= -.15776750E+04  d E =-.174724E-03
       N       E                     dE             d eps       ncg     rms          rms(c)
DAV:   1    -0.157768312900E+04   -0.14375E-03   -0.15054E-02 11514   0.160E-01    0.153E-02
DAV:   2    -0.157768314191E+04   -0.12910E-04   -0.12997E-04 16008   0.141E-02    0.112E-02
DAV:   3    -0.157768314298E+04   -0.10646E-05   -0.93636E-06  6882   0.584E-03    0.788E-03
DAV:   4    -0.157768314505E+04   -0.20742E-05   -0.63477E-06  6272   0.555E-03    0.328E-03
DAV:   5    -0.157768314630E+04   -0.12458E-05   -0.28028E-06  6063   0.373E-03
  22 F= -.15776831E+04 E0= -.15776751E+04  d E =-.162412E-03
       N       E                     dE             d eps       ncg     rms          rms(c)
DAV:   1    -0.157768322683E+04   -0.81775E-04   -0.34310E-03 11538   0.773E-02    0.103E-02
DAV:   2    -0.157768321774E+04    0.90822E-05   -0.24244E-05  7760   0.817E-03    0.625E-03
DAV:   3    -0.157768321516E+04    0.25848E-05   -0.90085E-06  6429   0.602E-03    0.467E-03
DAV:   4    -0.157768321149E+04    0.36651E-05   -0.45781E-06  5916   0.433E-03    0.243E-03
DAV:   5    -0.157768320948E+04    0.20178E-05   -0.27749E-06  5892   0.297E-03
  23 F= -.15776832E+04 E0= -.15776752E+04  d E =-.631795E-04
       N       E                     dE             d eps       ncg     rms          rms(c)
DAV:   1    -0.157768332130E+04   -0.10981E-03   -0.10398E-02 11517   0.132E-01    0.130E-02
DAV:   2    -0.157768333055E+04   -0.92435E-05   -0.96242E-05 15248   0.119E-02    0.980E-03
DAV:   3    -0.157768333106E+04   -0.51441E-06   -0.75370E-06  6476   0.519E-03    0.712E-03
DAV:   4    -0.157768333246E+04   -0.14016E-05   -0.52490E-06  6120   0.477E-03    0.266E-03
DAV:   5    -0.157768333319E+04   -0.72545E-06   -0.21562E-06  5931   0.329E-03
  24 F= -.15776833E+04 E0= -.15776753E+04  d E =-.123712E-03
       N       E                     dE             d eps       ncg     rms          rms(c)
DAV:   1    -0.157768342672E+04   -0.94260E-04   -0.71817E-03 11532   0.110E-01    0.105E-02
DAV:   2    -0.157768342581E+04    0.91362E-06   -0.57404E-05 11664   0.100E-02    0.785E-03
DAV:   3    -0.157768342426E+04    0.15509E-05   -0.87967E-06  6397   0.548E-03    0.587E-03
DAV:   4    -0.157768342117E+04    0.30876E-05   -0.40736E-06  5940   0.396E-03    0.245E-03
DAV:   5    -0.157768341993E+04    0.12401E-05   -0.20826E-06  5883   0.290E-03
  25 F= -.15776834E+04 E0= -.15776754E+04  d E =-.867425E-04
       N       E                     dE             d eps       ncg     rms          rms(c)
DAV:   1    -0.157768350385E+04   -0.82684E-04   -0.78102E-03 11514   0.115E-01    0.113E-02
DAV:   2    -0.157768351175E+04   -0.78957E-05   -0.66435E-05 12880   0.102E-02    0.828E-03
DAV:   3    -0.157768351309E+04   -0.13372E-05   -0.84264E-06  6324   0.520E-03    0.590E-03
DAV:   4    -0.157768351511E+04   -0.20259E-05   -0.41527E-06  6015   0.418E-03    0.246E-03
DAV:   5    -0.157768351621E+04   -0.10990E-05   -0.19724E-06  5901   0.294E-03
  26 F= -.15776835E+04 E0= -.15776755E+04  d E =-.962818E-04
       N       E                     dE             d eps       ncg     rms          rms(c)
DAV:   1    -0.157768357711E+04   -0.61999E-04   -0.32476E-03 11532   0.745E-02    0.852E-03
DAV:   2    -0.157768357173E+04    0.53790E-05   -0.20863E-05  6973   0.728E-03    0.553E-03
DAV:   3    -0.157768357006E+04    0.16771E-05   -0.76680E-06  6071   0.498E-03    0.406E-03
DAV:   4    -0.157768356747E+04    0.25885E-05   -0.40585E-06  5883   0.380E-03    0.210E-03
DAV:   5    -0.157768356612E+04    0.13470E-05   -0.24586E-06  5874   0.274E-03
  27 F= -.15776836E+04 E0= -.15776755E+04  d E =-.499087E-04
       N       E                     dE             d eps       ncg     rms          rms(c)
DAV:   1    -0.157768363513E+04   -0.67665E-04   -0.63691E-03 11514   0.104E-01    0.102E-02
DAV:   2    -0.157768364141E+04   -0.62811E-05   -0.55505E-05 11648   0.947E-03    0.769E-03
DAV:   3    -0.157768364243E+04   -0.10193E-05   -0.82803E-06  6274   0.516E-03    0.556E-03
DAV:   4    -0.157768364408E+04   -0.16429E-05   -0.40996E-06  5901   0.397E-03    0.206E-03
DAV:   5    -0.157768364483E+04   -0.75452E-06   -0.18832E-06  5877   0.278E-03
  28 F= -.15776836E+04 E0= -.15776756E+04  d E =-.787102E-04
       N       E                     dE             d eps       ncg     rms          rms(c)
DAV:   1    -0.157768369928E+04   -0.55200E-04   -0.35561E-03 11520   0.775E-02    0.782E-03
DAV:   2    -0.157768369628E+04    0.29965E-05   -0.21434E-05  7183   0.721E-03    0.541E-03
DAV:   3    -0.157768369523E+04    0.10490E-05   -0.77253E-06  6118   0.463E-03    0.390E-03
DAV:   4    -0.157768369316E+04    0.20668E-05   -0.42481E-06  5826   0.370E-03    0.178E-03
DAV:   5    -0.157768369241E+04    0.75470E-06   -0.24967E-06  5826   0.273E-03
  29 F= -.15776837E+04 E0= -.15776757E+04  d E =-.475780E-04
       N       E                     dE             d eps       ncg     rms          rms(c)
DAV:   1    -0.157768374678E+04   -0.53613E-04   -0.50934E-03 11514   0.927E-02    0.928E-03
DAV:   2    -0.157768375206E+04   -0.52880E-05   -0.39429E-05  9840   0.861E-03    0.672E-03
DAV:   3    -0.157768375366E+04   -0.15910E-05   -0.92611E-06  6210   0.509E-03    0.469E-03
DAV:   4    -0.157768375552E+04   -0.18668E-05   -0.47355E-06  5859   0.405E-03    0.195E-03
DAV:   5    -0.157768375641E+04   -0.89251E-06   -0.25208E-06  5841   0.290E-03
  30 F= -.15776838E+04 E0= -.15776758E+04  d E =-.640058E-04
       N       E                     dE             d eps       ncg     rms          rms(c)
DAV:   1    -0.157768379415E+04   -0.38629E-04   -0.18611E-03 11520   0.563E-02    0.656E-03
DAV:   2    -0.157768379027E+04    0.38781E-05   -0.13298E-05  5825   0.577E-03    0.426E-03
DAV:   3    -0.157768378903E+04    0.12473E-05   -0.51613E-06  5805   0.402E-03    0.308E-03
DAV:   4    -0.157768378726E+04    0.17623E-05   -0.27378E-06  5817   0.306E-03    0.167E-03
DAV:   5    -0.157768378622E+04    0.10405E-05   -0.16753E-06  5817   0.228E-03
  31 F= -.15776838E+04 E0= -.15776758E+04  d E =-.298080E-04
       N       E                     dE             d eps       ncg     rms          rms(c)
DAV:   1    -0.157768383134E+04   -0.44073E-04   -0.40539E-03 11514   0.825E-02    0.789E-03
DAV:   2    -0.157768383430E+04   -0.29627E-05   -0.24613E-05  8344   0.754E-03    0.579E-03
DAV:   3    -0.157768383538E+04   -0.10783E-05   -0.85214E-06  6194   0.466E-03    0.414E-03
DAV:   4    -0.157768383675E+04   -0.13757E-05   -0.52580E-06  5835   0.394E-03    0.111E-03
DAV:   5    -0.157768383709E+04   -0.34212E-06   -0.26832E-06  5832   0.282E-03
  32 F= -.15776838E+04 E0= -.15776758E+04  d E =-.508719E-04
       N       E                     dE             d eps       ncg     rms          rms(c)
DAV:   1    -0.157768389052E+04   -0.53764E-04   -0.56151E-03 11514   0.973E-02    0.979E-03
DAV:   2    -0.157768388886E+04    0.16510E-05   -0.51113E-05 11240   0.923E-03    0.711E-03
DAV:   3    -0.157768388681E+04    0.20528E-05   -0.83201E-06  6184   0.500E-03    0.469E-03
DAV:   4    -0.157768388439E+04    0.24207E-05   -0.34341E-06  5859   0.377E-03    0.229E-03
DAV:   5    -0.157768388327E+04    0.11245E-05   -0.18101E-06  5850   0.295E-03
  33 F= -.15776839E+04 E0= -.15776759E+04  d E =-.461724E-04
       N       E                     dE             d eps       ncg     rms          rms(c)
DAV:   1    -0.157768389085E+04   -0.64568E-05   -0.19810E-04 11376   0.196E-02    0.413E-03
DAV:   2    -0.157768389388E+04   -0.30363E-05   -0.27604E-06  5808   0.267E-03    0.212E-03
DAV:   3    -0.157768389539E+04   -0.15102E-05   -0.12436E-06  5808   0.218E-03    0.148E-03
DAV:   4    -0.157768389650E+04   -0.11004E-05   -0.57382E-07  5808   0.155E-03    0.800E-04
DAV:   5    -0.157768389739E+04   -0.88997E-06   -0.35095E-07  5808   0.106E-03
  34 F= -.15776839E+04 E0= -.15776759E+04  d E =-.141182E-04
       N       E                     dE             d eps       ncg     rms          rms(c)
DAV:   1    -0.157768393871E+04   -0.42216E-04   -0.40753E-03 11514   0.827E-02    0.763E-03
DAV:   2    -0.157768393907E+04   -0.35952E-06   -0.21698E-05  7728   0.722E-03    0.560E-03
DAV:   3    -0.157768393892E+04    0.14845E-06   -0.78172E-06  6117   0.432E-03    0.353E-03
DAV:   4    -0.157768393840E+04    0.51853E-06   -0.45537E-06  5817   0.380E-03    0.939E-04
DAV:   5    -0.157768393857E+04   -0.16508E-06   -0.23283E-06  5817   0.261E-03
  35 F= -.15776839E+04 E0= -.15776759E+04  d E =-.411835E-04
       N       E                     dE             d eps       ncg     rms          rms(c)
DAV:   1    -0.157768405912E+04   -0.12072E-03   -0.82717E-02 11508   0.373E-01    0.337E-02
DAV:   2    -0.157768410685E+04   -0.47722E-04   -0.70141E-04 16984   0.323E-02    0.260E-02
DAV:   3    -0.157768410101E+04    0.58321E-05   -0.53294E-05 10893   0.122E-02    0.174E-02
DAV:   4    -0.157768409454E+04    0.64689E-05   -0.37001E-05  9088   0.120E-02    0.538E-03
DAV:   5    -0.157768409371E+04    0.83041E-06   -0.10633E-05  6656   0.732E-03
  36 F= -.15776841E+04 E0= -.15776761E+04  d E =-.155145E-03
       N       E                     dE             d eps       ncg     rms          rms(c)
DAV:   1    -0.157768401425E+04    0.80298E-04   -0.34153E-02 11508   0.240E-01    0.237E-02
DAV:   2    -0.157768401662E+04   -0.23775E-05   -0.26406E-04 16672   0.208E-02    0.177E-02
DAV:   3    -0.157768400976E+04    0.68629E-05   -0.20088E-05  8021   0.874E-03    0.136E-02
DAV:   4    -0.157768399782E+04    0.11941E-04   -0.17133E-05  7144   0.837E-03    0.441E-03
DAV:   5    -0.157768399534E+04    0.24801E-05   -0.64476E-06  5817   0.561E-03
  37 F= -.15776840E+04 E0= -.15776760E+04  d E =0.983743E-04
       N       E                     dE             d eps       ncg     rms          rms(c)
DAV:   1    -0.157768405578E+04   -0.57963E-04   -0.14052E-02 11514   0.154E-01    0.143E-02
DAV:   2    -0.157768406225E+04   -0.64711E-05   -0.10307E-04 15136   0.131E-02    0.111E-02
DAV:   3    -0.157768406116E+04    0.10914E-05   -0.78355E-06  6304   0.568E-03    0.851E-03
DAV:   4    -0.157768406025E+04    0.91415E-06   -0.92618E-06  5919   0.528E-03    0.200E-03
DAV:   5    -0.157768406015E+04    0.10300E-06   -0.19308E-06  5817   0.315E-03
  38 F= -.15776841E+04 E0= -.15776761E+04  d E =-.648058E-04
       N       E                     dE             d eps       ncg     rms          rms(c)
DAV:   1    -0.157768414162E+04   -0.81369E-04   -0.68895E-02 11508   0.340E-01    0.304E-02
DAV:   2    -0.157768417539E+04   -0.33771E-04   -0.57250E-04 16936   0.294E-02    0.235E-02
DAV:   3    -0.157768416821E+04    0.71770E-05   -0.38767E-05  9773   0.111E-02    0.167E-02
DAV:   4    -0.157768415801E+04    0.10204E-04   -0.29743E-05  8400   0.108E-02    0.499E-03
DAV:   5    -0.157768415693E+04    0.10741E-05   -0.90552E-06  6485   0.696E-03
  39 F= -.15776842E+04 E0= -.15776761E+04  d E =-.967871E-04
       N       E                     dE             d eps       ncg     rms          rms(c)
DAV:   1    -0.157768411722E+04    0.40786E-04   -0.11224E-02 11514   0.139E-01    0.165E-02
DAV:   2    -0.157768412481E+04   -0.75845E-05   -0.87970E-05 13776   0.129E-02    0.113E-02
DAV:   3    -0.157768412541E+04   -0.60737E-06   -0.14375E-05  7093   0.713E-03    0.875E-03
DAV:   4    -0.157768412707E+04   -0.16565E-05   -0.70841E-06  5907   0.560E-03    0.449E-03
DAV:   5    -0.157768412964E+04   -0.25704E-05   -0.40186E-06  5817   0.413E-03
  40 F= -.15776841E+04 E0= -.15776761E+04  d E =0.272930E-04
       N       E                     dE             d eps       ncg     rms          rms(c)
DAV:   1    -0.157768417379E+04   -0.46722E-04   -0.98813E-03 11514   0.129E-01    0.130E-02
DAV:   2    -0.157768417024E+04    0.35500E-05   -0.71269E-05 13272   0.115E-02    0.941E-03
DAV:   3    -0.157768416728E+04    0.29598E-05   -0.94061E-06  6213   0.581E-03    0.710E-03
DAV:   4    -0.157768416250E+04    0.47802E-05   -0.52632E-06  5889   0.461E-03    0.304E-03
DAV:   5    -0.157768416053E+04    0.19683E-05   -0.25932E-06  5817   0.337E-03
  41 F= -.15776842E+04 E0= -.15776762E+04  d E =-.308937E-04
       N       E                     dE             d eps       ncg     rms          rms(c)
DAV:   1    -0.157768417045E+04   -0.79484E-05   -0.16152E-03 11514   0.521E-02    0.471E-03
DAV:   2    -0.157768417156E+04   -0.11064E-05   -0.10223E-05  5832   0.500E-03    0.375E-03
DAV:   3    -0.157768417167E+04   -0.10913E-06   -0.36983E-06  5808   0.323E-03    0.285E-03
DAV:   4    -0.157768417208E+04   -0.41068E-06   -0.23808E-06  5808   0.234E-03    0.818E-04
DAV:   5    -0.157768417222E+04   -0.14506E-06   -0.11783E-06  5808   0.191E-03
  42 F= -.15776842E+04 E0= -.15776762E+04  d E =-.116880E-04
       N       E                     dE             d eps       ncg     rms          rms(c)
DAV:   1    -0.157768419521E+04   -0.23131E-04   -0.10936E-02 11514   0.136E-01    0.127E-02
DAV:   2    -0.157768419756E+04   -0.23501E-05   -0.98760E-05 15288   0.122E-02    0.980E-03
DAV:   3    -0.157768419560E+04    0.19578E-05   -0.76904E-06  6664   0.528E-03    0.773E-03
DAV:   4    -0.157768419186E+04    0.37427E-05   -0.53517E-06  6039   0.436E-03    0.311E-03
DAV:   5    -0.157768419043E+04    0.14234E-05   -0.24750E-06  5965   0.326E-03
  43 F= -.15776842E+04 E0= -.15776762E+04  d E =-.182118E-04
       N       E                     dE             d eps       ncg     rms          rms(c)
DAV:   1    -0.157768417732E+04    0.14541E-04   -0.34876E-03 11514   0.769E-02    0.809E-03
DAV:   2    -0.157768418037E+04   -0.30508E-05   -0.17579E-05  6152   0.677E-03    0.561E-03
DAV:   3    -0.157768418141E+04   -0.10475E-05   -0.57535E-06  5805   0.411E-03    0.425E-03
DAV:   4    -0.157768418306E+04   -0.16462E-05   -0.34839E-06  5808   0.332E-03    0.153E-03
DAV:   5    -0.157768418379E+04   -0.72945E-06   -0.17581E-06  5808   0.227E-03
  44 F= -.15776842E+04 E0= -.15776762E+04  d E =0.664355E-05
       N       E                     dE             d eps       ncg     rms          rms(c)
DAV:   1    -0.157768419217E+04   -0.91072E-05   -0.14940E-03 11514   0.503E-02    0.448E-03
DAV:   2    -0.157768419256E+04   -0.38930E-06   -0.63815E-06  5808   0.416E-03    0.333E-03
DAV:   3    -0.157768419256E+04   -0.47412E-08   -0.16972E-06  5805   0.228E-03    0.257E-03
DAV:   4    -0.157768419257E+04   -0.12260E-07   -0.12513E-06  5808   0.192E-03    0.680E-04
DAV:   5    -0.157768419261E+04   -0.35250E-07   -0.49907E-07  5808   0.129E-03
  45 F= -.15776842E+04 E0= -.15776762E+04  d E =-.881924E-05
       N       E                     dE             d eps       ncg     rms          rms(c)
DAV:   1    -0.157768420418E+04   -0.11611E-04   -0.25598E-03 11514   0.660E-02    0.712E-03
DAV:   2    -0.157768420013E+04    0.40526E-05   -0.15614E-05  6176   0.624E-03    0.466E-03
DAV:   3    -0.157768419848E+04    0.16496E-05   -0.57044E-06  5805   0.399E-03    0.316E-03
DAV:   4    -0.157768419681E+04    0.16736E-05   -0.28987E-06  5808   0.319E-03    0.173E-03
DAV:   5    -0.157768419580E+04    0.10036E-05   -0.17798E-06  5808   0.231E-03
  46 F= -.15776842E+04 E0= -.15776762E+04  d E =-.319612E-05
       N       E                     dE             d eps       ncg     rms          rms(c)
DAV:   1    -0.157768419186E+04    0.49450E-05   -0.48162E-04 11520   0.294E-02    0.448E-03
DAV:   2    -0.157768419458E+04   -0.27135E-05   -0.31281E-06  5790   0.312E-03    0.258E-03
DAV:   3    -0.157768419557E+04   -0.98932E-06   -0.11141E-06  5787   0.228E-03    0.202E-03
DAV:   4    -0.157768419663E+04   -0.10686E-05   -0.47014E-07  5790   0.149E-03    0.104E-03
DAV:   5    -0.157768419767E+04   -0.10358E-05   -0.24666E-07  5790   0.871E-04
  47 F= -.15776842E+04 E0= -.15776762E+04  d E =-.186573E-05
       N       E                     dE             d eps       ncg     rms          rms(c)
DAV:   1    -0.157768420137E+04   -0.47376E-05   -0.43147E-04 11512   0.269E-02    0.230E-03
DAV:   2    -0.157768420160E+04   -0.22831E-06   -0.21171E-06  5781   0.238E-03    0.177E-03
DAV:   3    -0.157768420162E+04   -0.19157E-07   -0.63803E-07  5778   0.139E-03    0.137E-03
DAV:   4    -0.157768420169E+04   -0.73647E-07   -0.46164E-07  5781   0.110E-03    0.281E-04
DAV:   5    -0.157768420170E+04   -0.89813E-08   -0.19262E-07  5781   0.789E-04
  48 F= -.15776842E+04 E0= -.15776762E+04  d E =-.403187E-05
       N       E                     dE             d eps       ncg     rms          rms(c)
DAV:   1    -0.157768421209E+04   -0.10394E-04   -0.37200E-03 11514   0.792E-02    0.765E-03
DAV:   2    -0.157768420985E+04    0.22361E-05   -0.20454E-05  7632   0.709E-03    0.536E-03
DAV:   3    -0.157768420860E+04    0.12563E-05   -0.72684E-06  6043   0.428E-03    0.341E-03
DAV:   4    -0.157768420713E+04    0.14611E-05   -0.38619E-06  5817   0.364E-03    0.144E-03
DAV:   5    -0.157768420677E+04    0.36563E-06   -0.22257E-06  5817   0.261E-03
  49 F= -.15776842E+04 E0= -.15776762E+04  d E =-.506591E-05
       N       E                     dE             d eps       ncg     rms          rms(c)
DAV:   1    -0.157768420148E+04    0.56565E-05   -0.10837E-03 11514   0.432E-02    0.496E-03
DAV:   2    -0.157768420380E+04   -0.23187E-05   -0.51419E-06  5781   0.380E-03    0.315E-03
DAV:   3    -0.157768420475E+04   -0.95598E-06   -0.15753E-06  5778   0.232E-03    0.237E-03
DAV:   4    -0.157768420570E+04   -0.95267E-06   -0.72484E-07  5781   0.171E-03    0.120E-03
DAV:   5    -0.157768420655E+04   -0.84551E-06   -0.40748E-07  5781   0.109E-03
  50 F= -.15776842E+04 E0= -.15776762E+04  d E =0.218085E-06
       N       E                     dE             d eps       ncg     rms          rms(c)
DAV:   1    -0.157768421007E+04   -0.43647E-05   -0.53072E-04 11520   0.299E-02    0.259E-03
DAV:   2    -0.157768421006E+04    0.10784E-07   -0.23911E-06  5772   0.248E-03    0.191E-03
DAV:   3    -0.157768421001E+04    0.44532E-07   -0.73235E-07  5772   0.135E-03    0.132E-03
DAV:   4    -0.157768420989E+04    0.12544E-06   -0.46060E-07  5772   0.117E-03    0.334E-04
DAV:   5    -0.157768420990E+04   -0.76639E-08   -0.20986E-07  5772   0.757E-04
  51 F= -.15776842E+04 E0= -.15776762E+04  d E =-.334609E-05
       N       E                     dE             d eps       ncg     rms          rms(c)
DAV:   1    -0.157768421688E+04   -0.69924E-05   -0.43919E-03 11514   0.858E-02    0.771E-03
DAV:   2    -0.157768421733E+04   -0.44777E-06   -0.23310E-05  7862   0.745E-03    0.566E-03
DAV:   3    -0.157768421699E+04    0.33947E-06   -0.85278E-06  5945   0.435E-03    0.289E-03
DAV:   4    -0.157768421673E+04    0.25861E-06   -0.44784E-06  5817   0.375E-03    0.985E-04
DAV:   5    -0.157768421691E+04   -0.17927E-06   -0.23621E-06  5814   0.255E-03
  52 F= -.15776842E+04 E0= -.15776762E+04  d E =-.701369E-05
