       N       E                     dE             d eps       ncg     rms          rms(c)
DAV:   1     0.219308547139E+04    0.21931E+04   -0.29026E+05 11628   0.143E+03
DAV:   2    -0.119378585667E+04   -0.33869E+04   -0.32493E+04 13446   0.296E+02
DAV:   3    -0.162565669160E+04   -0.43187E+03   -0.39883E+03 17944   0.820E+01
DAV:   4    -0.165038054589E+04   -0.24724E+02   -0.23090E+02 16312   0.173E+01
DAV:   5    -0.165145288786E+04   -0.10723E+01   -0.10530E+01 17864   0.421E+00    0.414E+01
DAV:   6    -0.161170631582E+04    0.39747E+02   -0.16690E+02 18312   0.185E+01    0.243E+01
DAV:   7    -0.159715225328E+04    0.14554E+02   -0.11433E+02 19288   0.178E+01    0.185E+01
DAV:   8    -0.158633449509E+04    0.10818E+02   -0.74784E+01 16856   0.120E+01    0.108E+01
DAV:   9    -0.158027036564E+04    0.60641E+01   -0.28738E+01 16624   0.858E+00    0.339E+00
DAV:  10    -0.158013716352E+04    0.13320E+00   -0.57865E+00 16896   0.366E+00    0.188E+00
DAV:  11    -0.158011028630E+04    0.26877E-01   -0.10524E+00 15592   0.151E+00    0.134E+00
DAV:  12    -0.158008103054E+04    0.29256E-01   -0.27384E-01 14256   0.760E-01    0.739E-01
DAV:  13    -0.158007129820E+04    0.97323E-02   -0.90556E-02 15752   0.543E-01    0.458E-01
DAV:  14    -0.158006216106E+04    0.91371E-02   -0.36972E-02 16008   0.339E-01    0.213E-01
DAV:  15    -0.158006090067E+04    0.12604E-02   -0.12047E-02 15144   0.151E-01    0.905E-02
DAV:  16    -0.158006084698E+04    0.53687E-04   -0.26503E-03 16160   0.807E-02    0.601E-02
DAV:  17    -0.158006079771E+04    0.49267E-04   -0.86430E-04 16168   0.475E-02    0.389E-02
DAV:  18    -0.158006076342E+04    0.34299E-04   -0.32906E-04 15136   0.291E-02    0.185E-02
DAV:  19    -0.158006075694E+04    0.64792E-05   -0.94277E-05 13648   0.156E-02
   1 F= -.15800608E+04 E0= -.15800644E+04  d E =-.158006E+04
       N       E                     dE             d eps       ncg     rms          rms(c)
DAV:   1    -0.158404966894E+04   -0.39889E+01   -0.15037E+03 11620   0.588E+01    0.211E+01
DAV:   2    -0.156762984691E+04    0.16420E+02   -0.91265E+01 18008   0.137E+01    0.126E+01
DAV:   3    -0.156248201548E+04    0.51478E+01   -0.53752E+01 19368   0.111E+01    0.962E+00
DAV:   4    -0.155862310903E+04    0.38589E+01   -0.20634E+01 20016   0.665E+00    0.614E+00
DAV:   5    -0.155696132483E+04    0.16618E+01   -0.11959E+01 17216   0.452E+00    0.249E+00
DAV:   6    -0.155676537079E+04    0.19595E+00   -0.25314E+00 17152   0.235E+00    0.145E+00
DAV:   7    -0.155673069503E+04    0.34676E-01   -0.47095E-01 15568   0.104E+00    0.101E+00
DAV:   8    -0.155671960908E+04    0.11086E-01   -0.14819E-01 17608   0.460E-01    0.549E-01
DAV:   9    -0.155672475428E+04   -0.51452E-02   -0.86964E-02 17920   0.323E-01    0.318E-01
DAV:  10    -0.155672600453E+04   -0.12503E-02   -0.25658E-02 16888   0.246E-01    0.268E-01
DAV:  11    -0.155672315863E+04    0.28459E-02   -0.10859E-02 17152   0.154E-01    0.120E-01
DAV:  12    -0.155672310775E+04    0.50873E-04   -0.47596E-03 18008   0.807E-02    0.627E-02
DAV:  13    -0.155672329208E+04   -0.18432E-03   -0.11357E-03 17344   0.454E-02    0.460E-02
DAV:  14    -0.155672335600E+04   -0.63925E-04   -0.52021E-04 16544   0.332E-02    0.237E-02
DAV:  15    -0.155672336922E+04   -0.13218E-04   -0.18930E-04 15872   0.175E-02    0.132E-02
DAV:  16    -0.155672337081E+04   -0.15951E-05   -0.32788E-05  7976   0.922E-03
   2 F= -.15567234E+04 E0= -.15567269E+04  d E =0.233374E+02
       N       E                     dE             d eps       ncg     rms          rms(c)
DAV:   1    -0.159873335078E+04   -0.42010E+02   -0.71780E+02 11620   0.447E+01    0.149E+01
DAV:   2    -0.158929857152E+04    0.94348E+01   -0.26746E+01 16824   0.852E+00    0.731E+00
DAV:   3    -0.158794075547E+04    0.13578E+01   -0.15839E+01 17704   0.630E+00    0.606E+00
DAV:   4    -0.158613008282E+04    0.18107E+01   -0.74563E+00 17824   0.449E+00    0.324E+00
DAV:   5    -0.158562229661E+04    0.50779E+00   -0.36468E+00 16400   0.289E+00    0.112E+00
DAV:   6    -0.158560286506E+04    0.19432E-01   -0.70516E-01 15608   0.137E+00    0.738E-01
DAV:   7    -0.158559859473E+04    0.42703E-02   -0.12852E-01 14968   0.554E-01    0.523E-01
DAV:   8    -0.158560175260E+04   -0.31579E-02   -0.38081E-02 15928   0.260E-01    0.280E-01
DAV:   9    -0.158560976166E+04   -0.80091E-02   -0.27648E-02 16496   0.210E-01    0.200E-01
DAV:  10    -0.158560984689E+04   -0.85232E-04   -0.69164E-03 15600   0.150E-01    0.143E-01
DAV:  11    -0.158560922279E+04    0.62410E-03   -0.39952E-03 16792   0.868E-02    0.523E-02
DAV:  12    -0.158560942394E+04   -0.20116E-03   -0.11903E-03 16784   0.455E-02    0.426E-02
DAV:  13    -0.158560961616E+04   -0.19222E-03   -0.35871E-04 15016   0.300E-02    0.310E-02
DAV:  14    -0.158560963962E+04   -0.23455E-04   -0.15161E-04 14528   0.179E-02    0.114E-02
DAV:  15    -0.158560963608E+04    0.35425E-05   -0.35914E-05  7632   0.852E-03
   3 F= -.15856096E+04 E0= -.15855996E+04  d E =-.288863E+02
       N       E                     dE             d eps       ncg     rms          rms(c)
DAV:   1    -0.158574886803E+04   -0.13923E+00   -0.15122E+01 11620   0.513E+00    0.686E-01
DAV:   2    -0.158576337072E+04   -0.14503E-01   -0.25572E-01 17048   0.783E-01    0.590E-01
DAV:   3    -0.158574703484E+04    0.16336E-01   -0.81069E-02 18032   0.481E-01    0.354E-01
DAV:   4    -0.158574378305E+04    0.32518E-02   -0.18377E-02 16472   0.199E-01    0.213E-01
DAV:   5    -0.158574259550E+04    0.11876E-02   -0.97152E-03 15760   0.159E-01    0.961E-02
DAV:   6    -0.158574238459E+04    0.21091E-03   -0.31742E-03 16040   0.992E-02    0.594E-02
DAV:   7    -0.158574228604E+04    0.98554E-04   -0.92055E-04 16064   0.489E-02    0.358E-02
DAV:   8    -0.158574226398E+04    0.22051E-04   -0.23494E-04 16256   0.227E-02    0.220E-02
DAV:   9    -0.158574225897E+04    0.50178E-05   -0.86767E-05 14096   0.154E-02
   4 F= -.15857423E+04 E0= -.15857329E+04  d E =-.132623E+00
       N       E                     dE             d eps       ncg     rms          rms(c)
DAV:   1    -0.158577222402E+04   -0.29960E-01   -0.33494E+00 11620   0.240E+00    0.348E-01
DAV:   2    -0.158578104065E+04   -0.88166E-02   -0.81195E-02 17648   0.511E-01    0.405E-01
DAV:   3    -0.158576953042E+04    0.11510E-01   -0.37936E-02 17688   0.331E-01    0.167E-01
DAV:   4    -0.158576883067E+04    0.69975E-03   -0.51613E-03 16592   0.104E-01    0.115E-01
DAV:   5    -0.158576842123E+04    0.40944E-03   -0.23916E-03 16040   0.815E-02    0.604E-02
DAV:   6    -0.158576829875E+04    0.12248E-03   -0.10832E-03 15912   0.555E-02    0.360E-02
DAV:   7    -0.158576824819E+04    0.50568E-04   -0.31594E-04 15336   0.281E-02    0.193E-02
DAV:   8    -0.158576824947E+04   -0.12814E-05   -0.66733E-05 12592   0.127E-02
   5 F= -.15857682E+04 E0= -.15857584E+04  d E =-.259905E-01
       N       E                     dE             d eps       ncg     rms          rms(c)
DAV:   1    -0.158577775976E+04   -0.95116E-02   -0.66700E-01 11753   0.114E+00    0.230E-01
DAV:   2    -0.158577673688E+04    0.10229E-02   -0.11147E-02 16432   0.165E-01    0.150E-01
DAV:   3    -0.158577605114E+04    0.68574E-03   -0.52471E-03 18169   0.121E-01    0.107E-01
DAV:   4    -0.158577558612E+04    0.46502E-03   -0.17915E-03 15968   0.646E-02    0.492E-02
DAV:   5    -0.158577557697E+04    0.91478E-05   -0.77205E-04 15584   0.446E-02    0.248E-02
DAV:   6    -0.158577556075E+04    0.16224E-04   -0.18997E-04 15496   0.244E-02    0.142E-02
DAV:   7    -0.158577555782E+04    0.29252E-05   -0.33894E-05  8200   0.102E-02
   6 F= -.15857756E+04 E0= -.15857661E+04  d E =-.730836E-02
       N       E                     dE             d eps       ncg     rms          rms(c)
DAV:   1    -0.158578406007E+04   -0.84993E-02   -0.49556E-01 11718   0.945E-01    0.176E-01
DAV:   2    -0.158578503490E+04   -0.97483E-03   -0.14230E-02 18040   0.216E-01    0.181E-01
DAV:   3    -0.158578278974E+04    0.22452E-02   -0.77306E-03 18208   0.148E-01    0.793E-02
DAV:   4    -0.158578254604E+04    0.24370E-03   -0.11654E-03 15960   0.497E-02    0.490E-02
DAV:   5    -0.158578242636E+04    0.11968E-03   -0.53869E-04 15976   0.399E-02    0.255E-02
DAV:   6    -0.158578238966E+04    0.36701E-04   -0.21028E-04 15904   0.252E-02    0.149E-02
DAV:   7    -0.158578238010E+04    0.95574E-05   -0.53714E-05 11760   0.121E-02
   7 F= -.15857824E+04 E0= -.15857726E+04  d E =-.682228E-02
       N       E                     dE             d eps       ncg     rms          rms(c)
DAV:   1    -0.158578567980E+04   -0.32901E-02   -0.35659E-01 11718   0.775E-01    0.927E-02
DAV:   2    -0.158578660580E+04   -0.92600E-03   -0.61431E-03 17200   0.139E-01    0.119E-01
DAV:   3    -0.158578567025E+04    0.93555E-03   -0.27421E-03 17360   0.900E-02    0.495E-02
DAV:   4    -0.158578564840E+04    0.21850E-04   -0.40760E-04 16552   0.290E-02    0.291E-02
DAV:   5    -0.158578563850E+04    0.98969E-05   -0.18717E-04 15896   0.237E-02    0.134E-02
DAV:   6    -0.158578563445E+04    0.40512E-05   -0.63577E-05 12520   0.137E-02
   8 F= -.15857856E+04 E0= -.15857759E+04  d E =-.325434E-02
       N       E                     dE             d eps       ncg     rms          rms(c)
DAV:   1    -0.158578725760E+04   -0.16191E-02   -0.12849E-01 11774   0.477E-01    0.810E-02
DAV:   2    -0.158578744284E+04   -0.18524E-03   -0.29934E-03 17992   0.976E-02    0.833E-02
DAV:   3    -0.158578697961E+04    0.46323E-03   -0.15900E-03 18337   0.675E-02    0.376E-02
DAV:   4    -0.158578691523E+04    0.64379E-04   -0.24377E-04 15952   0.226E-02    0.230E-02
DAV:   5    -0.158578688098E+04    0.34247E-04   -0.11074E-04 14824   0.188E-02    0.125E-02
DAV:   6    -0.158578686739E+04    0.13596E-04   -0.40374E-05  9560   0.121E-02    0.620E-03
DAV:   7    -0.158578686625E+04    0.11340E-05   -0.11193E-05  6672   0.634E-03
   9 F= -.15857869E+04 E0= -.15857770E+04  d E =-.123180E-02
       N       E                     dE             d eps       ncg     rms          rms(c)
DAV:   1    -0.158578786467E+04   -0.99729E-03   -0.55227E-02 11788   0.315E-01    0.524E-02
DAV:   2    -0.158578788865E+04   -0.23981E-04   -0.77744E-04 16760   0.438E-02    0.396E-02
DAV:   3    -0.158578783287E+04    0.55787E-04   -0.33383E-04 18153   0.308E-02    0.257E-02
DAV:   4    -0.158578782731E+04    0.55572E-05   -0.86581E-05 13840   0.141E-02    0.120E-02
DAV:   5    -0.158578783673E+04   -0.94182E-05   -0.29993E-05  8296   0.105E-02
  10 F= -.15857878E+04 E0= -.15857781E+04  d E =-.970477E-03
       N       E                     dE             d eps       ncg     rms          rms(c)
DAV:   1    -0.158578870924E+04   -0.88193E-03   -0.80875E-02 11760   0.369E-01    0.435E-02
DAV:   2    -0.158578884210E+04   -0.13286E-03   -0.12246E-03 18000   0.588E-02    0.502E-02
DAV:   3    -0.158578868555E+04    0.15655E-03   -0.51668E-04 18424   0.387E-02    0.241E-02
DAV:   4    -0.158578866702E+04    0.18531E-04   -0.65925E-05 12400   0.124E-02    0.146E-02
DAV:   5    -0.158578865505E+04    0.11968E-04   -0.29831E-05  8608   0.113E-02    0.629E-03
DAV:   6    -0.158578865207E+04    0.29744E-05   -0.10264E-05  6960   0.763E-03
  11 F= -.15857887E+04 E0= -.15857789E+04  d E =-.815346E-03
       N       E                     dE             d eps       ncg     rms          rms(c)
DAV:   1    -0.158578925242E+04   -0.59737E-03   -0.71704E-02 11704   0.348E-01    0.377E-02
DAV:   2    -0.158578933121E+04   -0.78790E-04   -0.76310E-04 17296   0.413E-02    0.353E-02
DAV:   3    -0.158578928159E+04    0.49620E-04   -0.21915E-04 17205   0.256E-02    0.221E-02
DAV:   4    -0.158578928184E+04   -0.25057E-06   -0.51410E-05 11392   0.106E-02    0.861E-03
DAV:   5    -0.158578928536E+04   -0.35166E-05   -0.15226E-05  7642   0.857E-03
  12 F= -.15857893E+04 E0= -.15857795E+04  d E =-.633282E-03
       N       E                     dE             d eps       ncg     rms          rms(c)
DAV:   1    -0.158578954178E+04   -0.25994E-03   -0.81378E-03 11802   0.125E-01    0.268E-02
DAV:   2    -0.158578950338E+04    0.38401E-04   -0.15968E-04 16432   0.205E-02    0.173E-02
DAV:   3    -0.158578948672E+04    0.16663E-04   -0.71179E-05 12496   0.151E-02    0.118E-02
DAV:   4    -0.158578947171E+04    0.15005E-04   -0.19054E-05  7488   0.830E-03    0.622E-03
DAV:   5    -0.158578946220E+04    0.95129E-05   -0.91022E-06  6320   0.577E-03
  13 F= -.15857895E+04 E0= -.15857797E+04  d E =-.176846E-03
       N       E                     dE             d eps       ncg     rms          rms(c)
DAV:   1    -0.158578984488E+04   -0.37316E-03   -0.36739E-02 11739   0.248E-01    0.249E-02
DAV:   2    -0.158578987864E+04   -0.33757E-04   -0.34486E-04 17096   0.261E-02    0.221E-02
DAV:   3    -0.158578986360E+04    0.15041E-04   -0.62583E-05 12082   0.147E-02    0.156E-02
DAV:   4    -0.158578986483E+04   -0.12306E-05   -0.28361E-05  7200   0.840E-03    0.386E-03
DAV:   5    -0.158578986578E+04   -0.94936E-06   -0.72000E-06  6496   0.627E-03
  14 F= -.15857899E+04 E0= -.15857801E+04  d E =-.403574E-03
       N       E                     dE             d eps       ncg     rms          rms(c)
DAV:   1    -0.158579026103E+04   -0.39621E-03   -0.50680E-02 11718   0.291E-01    0.291E-02
DAV:   2    -0.158579028934E+04   -0.28308E-04   -0.49183E-04 17144   0.317E-02    0.260E-02
DAV:   3    -0.158579026405E+04    0.25292E-04   -0.11085E-04 15177   0.187E-02    0.178E-02
DAV:   4    -0.158579025057E+04    0.13479E-04   -0.28149E-05  7896   0.842E-03    0.821E-03
DAV:   5    -0.158579024542E+04    0.51523E-05   -0.11631E-05  6952   0.748E-03
  15 F= -.15857902E+04 E0= -.15857805E+04  d E =-.379642E-03
       N       E                     dE             d eps       ncg     rms          rms(c)
DAV:   1    -0.158579032370E+04   -0.73129E-04   -0.28706E-03 11802   0.753E-02    0.162E-02
DAV:   2    -0.158579032825E+04   -0.45477E-05   -0.33301E-05  7776   0.993E-03    0.847E-03
DAV:   3    -0.158579033240E+04   -0.41489E-05   -0.13966E-05  6984   0.800E-03    0.648E-03
DAV:   4    -0.158579033586E+04   -0.34663E-05   -0.69715E-06  6272   0.571E-03    0.297E-03
DAV:   5    -0.158579033943E+04   -0.35693E-05   -0.37881E-06  6104   0.347E-03
  16 F= -.15857903E+04 E0= -.15857806E+04  d E =-.940138E-04
       N       E                     dE             d eps       ncg     rms          rms(c)
DAV:   1    -0.158579058156E+04   -0.24570E-03   -0.21088E-02 11767   0.188E-01    0.197E-02
DAV:   2    -0.158579058428E+04   -0.27195E-05   -0.20011E-04 16776   0.186E-02    0.152E-02
DAV:   3    -0.158579057758E+04    0.67026E-05   -0.22631E-05  8329   0.969E-03    0.118E-02
DAV:   4    -0.158579056993E+04    0.76491E-05   -0.13593E-05  6448   0.649E-03    0.548E-03
DAV:   5    -0.158579056638E+04    0.35437E-05   -0.64524E-06  6208   0.522E-03
  17 F= -.15857906E+04 E0= -.15857808E+04  d E =-.226953E-03
       N       E                     dE             d eps       ncg     rms          rms(c)
DAV:   1    -0.158579077753E+04   -0.20760E-03   -0.23619E-02 11718   0.199E-01    0.183E-02
DAV:   2    -0.158579079467E+04   -0.17137E-04   -0.20093E-04 16744   0.181E-02    0.145E-02
DAV:   3    -0.158579079268E+04    0.19897E-05   -0.13940E-05  7707   0.765E-03    0.115E-02
DAV:   4    -0.158579079327E+04   -0.58857E-06   -0.14752E-05  6392   0.632E-03    0.226E-03
DAV:   5    -0.158579079344E+04   -0.16874E-06   -0.33274E-06  6128   0.409E-03
  18 F= -.15857908E+04 E0= -.15857810E+04  d E =-.227053E-03
       N       E                     dE             d eps       ncg     rms          rms(c)
DAV:   1    -0.158579096234E+04   -0.16907E-03   -0.15737E-02 11732   0.163E-01    0.184E-02
DAV:   2    -0.158579095595E+04    0.63940E-05   -0.15186E-04 16392   0.165E-02    0.131E-02
DAV:   3    -0.158579094987E+04    0.60788E-05   -0.19678E-05  8033   0.917E-03    0.101E-02
DAV:   4    -0.158579094236E+04    0.75091E-05   -0.10498E-05  6480   0.632E-03    0.531E-03
DAV:   5    -0.158579093735E+04    0.50109E-05   -0.56719E-06  6128   0.456E-03
  19 F= -.15857909E+04 E0= -.15857812E+04  d E =-.143912E-03
       N       E                     dE             d eps       ncg     rms          rms(c)
DAV:   1    -0.158579101126E+04   -0.68900E-04   -0.33066E-03 11774   0.765E-02    0.116E-02
DAV:   2    -0.158579101712E+04   -0.58589E-05   -0.24029E-05  7784   0.806E-03    0.695E-03
DAV:   3    -0.158579101988E+04   -0.27577E-05   -0.92054E-06  6497   0.597E-03    0.529E-03
DAV:   4    -0.158579102327E+04   -0.33878E-05   -0.52410E-06  6104   0.452E-03    0.216E-03
DAV:   5    -0.158579102548E+04   -0.22112E-05   -0.28779E-06  6104   0.299E-03
  20 F= -.15857910E+04 E0= -.15857813E+04  d E =-.881267E-04
       N       E                     dE             d eps       ncg     rms          rms(c)
DAV:   1    -0.158579116277E+04   -0.13950E-03   -0.13282E-02 11725   0.149E-01    0.146E-02
DAV:   2    -0.158579116620E+04   -0.34364E-05   -0.12185E-04 16128   0.137E-02    0.111E-02
DAV:   3    -0.158579116362E+04    0.25777E-05   -0.86825E-06  6884   0.585E-03    0.841E-03
DAV:   4    -0.158579115941E+04    0.42154E-05   -0.67197E-06  6192   0.510E-03    0.305E-03
DAV:   5    -0.158579115823E+04    0.11760E-05   -0.27509E-06  6097   0.355E-03
  21 F= -.15857912E+04 E0= -.15857814E+04  d E =-.132756E-03
       N       E                     dE             d eps       ncg     rms          rms(c)
DAV:   1    -0.158579125565E+04   -0.96241E-04   -0.90540E-03 11718   0.123E-01    0.118E-02
DAV:   2    -0.158579126421E+04   -0.85594E-05   -0.74333E-05 13792   0.110E-02    0.871E-03
DAV:   3    -0.158579126568E+04   -0.14677E-05   -0.84386E-06  6464   0.516E-03    0.598E-03
DAV:   4    -0.158579126765E+04   -0.19728E-05   -0.43197E-06  6104   0.438E-03    0.209E-03
DAV:   5    -0.158579126853E+04   -0.88310E-06   -0.18577E-06  6104   0.292E-03
  22 F= -.15857913E+04 E0= -.15857815E+04  d E =-.110300E-03
       N       E                     dE             d eps       ncg     rms          rms(c)
DAV:   1    -0.158579134542E+04   -0.77766E-04   -0.46861E-03 11760   0.892E-02    0.104E-02
DAV:   2    -0.158579133879E+04    0.66257E-05   -0.32021E-05  8704   0.888E-03    0.683E-03
DAV:   3    -0.158579133684E+04    0.19459E-05   -0.10662E-05  6505   0.606E-03    0.517E-03
DAV:   4    -0.158579133317E+04    0.36734E-05   -0.53828E-06  6104   0.437E-03    0.246E-03
DAV:   5    -0.158579133147E+04    0.16964E-05   -0.31326E-06  6104   0.305E-03
  23 F= -.15857913E+04 E0= -.15857816E+04  d E =-.629420E-04
       N       E                     dE             d eps       ncg     rms          rms(c)
DAV:   1    -0.158579140319E+04   -0.70016E-04   -0.60613E-03 11725   0.101E-01    0.106E-02
DAV:   2    -0.158579140994E+04   -0.67561E-05   -0.53718E-05 11608   0.943E-03    0.771E-03
DAV:   3    -0.158579141139E+04   -0.14511E-05   -0.85914E-06  6220   0.522E-03    0.554E-03
DAV:   4    -0.158579141336E+04   -0.19652E-05   -0.39522E-06  6104   0.403E-03    0.221E-03
DAV:   5    -0.158579141453E+04   -0.11700E-05   -0.19148E-06  6097   0.276E-03
  24 F= -.15857914E+04 E0= -.15857817E+04  d E =-.830552E-04
       N       E                     dE             d eps       ncg     rms          rms(c)
DAV:   1    -0.158579148191E+04   -0.68553E-04   -0.50372E-03 11718   0.918E-02    0.919E-03
DAV:   2    -0.158579147929E+04    0.26260E-05   -0.30468E-05  8528   0.837E-03    0.643E-03
DAV:   3    -0.158579147780E+04    0.14888E-05   -0.10086E-05  6208   0.502E-03    0.419E-03
DAV:   4    -0.158579147584E+04    0.19555E-05   -0.53612E-06  6104   0.416E-03    0.182E-03
DAV:   5    -0.158579147531E+04    0.53331E-06   -0.30179E-06  6083   0.296E-03
  25 F= -.15857915E+04 E0= -.15857817E+04  d E =-.607796E-04
       N       E                     dE             d eps       ncg     rms          rms(c)
DAV:   1    -0.158579154080E+04   -0.64954E-04   -0.71003E-03 11704   0.109E-01    0.110E-02
DAV:   2    -0.158579154841E+04   -0.76124E-05   -0.64698E-05 12608   0.102E-02    0.814E-03
DAV:   3    -0.158579154976E+04   -0.13511E-05   -0.83583E-06  6300   0.517E-03    0.571E-03
DAV:   4    -0.158579155164E+04   -0.18757E-05   -0.39383E-06  6104   0.408E-03    0.219E-03
DAV:   5    -0.158579155267E+04   -0.10374E-05   -0.18327E-06  6083   0.274E-03
  26 F= -.15857916E+04 E0= -.15857818E+04  d E =-.773635E-04
       N       E                     dE             d eps       ncg     rms          rms(c)
DAV:   1    -0.158579158313E+04   -0.31498E-04   -0.91652E-04 11774   0.400E-02    0.589E-03
DAV:   2    -0.158579157811E+04    0.50252E-05   -0.74325E-06  6083   0.437E-03    0.341E-03
DAV:   3    -0.158579157649E+04    0.16132E-05   -0.29846E-06  6083   0.321E-03    0.254E-03
DAV:   4    -0.158579157470E+04    0.17923E-05   -0.14841E-06  6083   0.235E-03    0.130E-03
DAV:   5    -0.158579157348E+04    0.12237E-05   -0.89208E-07  6083   0.160E-03
  27 F= -.15857916E+04 E0= -.15857818E+04  d E =-.208059E-04
       N       E                     dE             d eps       ncg     rms          rms(c)
DAV:   1    -0.158579163038E+04   -0.55679E-04   -0.59125E-03 11704   0.992E-02    0.936E-03
DAV:   2    -0.158579163385E+04   -0.34688E-05   -0.40312E-05  9976   0.882E-03    0.704E-03
DAV:   3    -0.158579163461E+04   -0.75960E-06   -0.93802E-06  6242   0.496E-03    0.414E-03
DAV:   4    -0.158579163537E+04   -0.76071E-06   -0.49180E-06  6104   0.412E-03    0.117E-03
DAV:   5    -0.158579163537E+04   -0.20291E-08   -0.21456E-06  6069   0.260E-03
  28 F= -.15857916E+04 E0= -.15857819E+04  d E =-.618940E-04
       N       E                     dE             d eps       ncg     rms          rms(c)
DAV:   1    -0.158579171418E+04   -0.78814E-04   -0.12582E-02 11690   0.145E-01    0.146E-02
DAV:   2    -0.158579171365E+04    0.53201E-06   -0.11685E-04 15968   0.134E-02    0.106E-02
DAV:   3    -0.158579170959E+04    0.40625E-05   -0.90601E-06  6865   0.560E-03    0.742E-03
DAV:   4    -0.158579170553E+04    0.40613E-05   -0.55660E-06  6248   0.519E-03    0.376E-03
DAV:   5    -0.158579170311E+04    0.24221E-05   -0.28864E-06  6104   0.375E-03
  29 F= -.15857917E+04 E0= -.15857820E+04  d E =-.677336E-04
       N       E                     dE             d eps       ncg     rms          rms(c)
DAV:   1    -0.158579169244E+04    0.13091E-04   -0.48609E-04 11760   0.308E-02    0.687E-03
DAV:   2    -0.158579169646E+04   -0.40201E-05   -0.49848E-06  6041   0.394E-03    0.366E-03
DAV:   3    -0.158579169832E+04   -0.18631E-05   -0.21413E-06  6034   0.333E-03    0.288E-03
DAV:   4    -0.158579170027E+04   -0.19480E-05   -0.10635E-06  6041   0.233E-03    0.117E-03
DAV:   5    -0.158579170181E+04   -0.15446E-05   -0.55611E-07  6041   0.130E-03
  30 F= -.15857917E+04 E0= -.15857820E+04  d E =0.129287E-05
       N       E                     dE             d eps       ncg     rms          rms(c)
DAV:   1    -0.158579174847E+04   -0.48205E-04   -0.51094E-03 11683   0.923E-02    0.827E-03
DAV:   2    -0.158579174897E+04   -0.49885E-06   -0.25377E-05  7752   0.795E-03    0.609E-03
DAV:   3    -0.158579174863E+04    0.34133E-06   -0.84822E-06  6100   0.443E-03    0.349E-03
DAV:   4    -0.158579174818E+04    0.45464E-06   -0.47265E-06  6083   0.388E-03    0.104E-03
DAV:   5    -0.158579174833E+04   -0.14895E-06   -0.23442E-06  6062   0.262E-03
  31 F= -.15857917E+04 E0= -.15857820E+04  d E =-.465124E-04
       N       E                     dE             d eps       ncg     rms          rms(c)
DAV:   1    -0.158579187192E+04   -0.12375E-03   -0.89341E-02 11620   0.386E-01    0.351E-02
DAV:   2    -0.158579192133E+04   -0.49405E-04   -0.74754E-04 17096   0.337E-02    0.271E-02
DAV:   3    -0.158579191350E+04    0.78317E-05   -0.60153E-05 11961   0.125E-02    0.170E-02
DAV:   4    -0.158579190561E+04    0.78903E-05   -0.40340E-05  9696   0.121E-02    0.494E-03
DAV:   5    -0.158579190452E+04    0.10890E-05   -0.92645E-06  6617   0.657E-03
  32 F= -.15857919E+04 E0= -.15857822E+04  d E =-.156192E-03
       N       E                     dE             d eps       ncg     rms          rms(c)
DAV:   1    -0.158579183711E+04    0.68497E-04   -0.28154E-02 11620   0.217E-01    0.219E-02
DAV:   2    -0.158579183635E+04    0.76292E-06   -0.21655E-04 16712   0.191E-02    0.162E-02
DAV:   3    -0.158579182983E+04    0.65213E-05   -0.16995E-05  7819   0.816E-03    0.123E-02
DAV:   4    -0.158579181859E+04    0.11236E-04   -0.14231E-05  6784   0.757E-03    0.372E-03
DAV:   5    -0.158579181646E+04    0.21286E-05   -0.50919E-06  6062   0.483E-03
  33 F= -.15857918E+04 E0= -.15857821E+04  d E =0.880566E-04
       N       E                     dE             d eps       ncg     rms          rms(c)
DAV:   1    -0.158579187875E+04   -0.60165E-04   -0.17522E-02 11634   0.171E-01    0.160E-02
DAV:   2    -0.158579188795E+04   -0.91965E-05   -0.13041E-04 16056   0.146E-02    0.122E-02
DAV:   3    -0.158579188711E+04    0.84429E-06   -0.93348E-06  6804   0.597E-03    0.811E-03
DAV:   4    -0.158579188699E+04    0.12084E-06   -0.87222E-06  6264   0.597E-03    0.201E-03
DAV:   5    -0.158579188673E+04    0.25505E-06   -0.19946E-06  6062   0.324E-03
  34 F= -.15857919E+04 E0= -.15857822E+04  d E =-.702697E-04
       N       E                     dE             d eps       ncg     rms          rms(c)
DAV:   1    -0.158579192965E+04   -0.42668E-04   -0.15893E-02 11620   0.163E-01    0.146E-02
DAV:   2    -0.158579193717E+04   -0.75174E-05   -0.13385E-04 16288   0.143E-02    0.113E-02
DAV:   3    -0.158579193470E+04    0.24696E-05   -0.83847E-06  6801   0.530E-03    0.701E-03
DAV:   4    -0.158579193253E+04    0.21682E-05   -0.61333E-06  6224   0.533E-03    0.212E-03
DAV:   5    -0.158579193227E+04    0.26451E-06   -0.18948E-06  6076   0.329E-03
  35 F= -.15857919E+04 E0= -.15857822E+04  d E =-.455376E-04
       N       E                     dE             d eps       ncg     rms          rms(c)
DAV:   1    -0.158579192354E+04    0.89887E-05   -0.26672E-04 11746   0.256E-02    0.776E-03
DAV:   2    -0.158579192789E+04   -0.43406E-05   -0.56551E-06  6062   0.470E-03    0.396E-03
DAV:   3    -0.158579192960E+04   -0.17147E-05   -0.28254E-06  6062   0.436E-03    0.308E-03
DAV:   4    -0.158579193189E+04   -0.22942E-05   -0.12536E-06  6062   0.264E-03    0.126E-03
DAV:   5    -0.158579193368E+04   -0.17820E-05   -0.64457E-07  6062   0.143E-03
  36 F= -.15857919E+04 E0= -.15857822E+04  d E =-.140740E-05
       N       E                     dE             d eps       ncg     rms          rms(c)
DAV:   1    -0.158579195676E+04   -0.24870E-04   -0.15632E-03 11725   0.520E-02    0.700E-03
DAV:   2    -0.158579195114E+04    0.56274E-05   -0.10309E-05  6041   0.534E-03    0.416E-03
DAV:   3    -0.158579194930E+04    0.18370E-05   -0.38072E-06  6027   0.366E-03    0.305E-03
DAV:   4    -0.158579194731E+04    0.19865E-05   -0.17777E-06  6041   0.267E-03    0.164E-03
DAV:   5    -0.158579194591E+04    0.14071E-05   -0.10658E-06  6041   0.181E-03
  37 F= -.15857919E+04 E0= -.15857822E+04  d E =-.122300E-04
       N       E                     dE             d eps       ncg     rms          rms(c)
DAV:   1    -0.158579195425E+04   -0.69349E-05   -0.97117E-04 11690   0.402E-02    0.392E-03
DAV:   2    -0.158579195485E+04   -0.59878E-06   -0.60019E-06  6020   0.381E-03    0.294E-03
DAV:   3    -0.158579195505E+04   -0.19885E-06   -0.22545E-06  5999   0.239E-03    0.220E-03
DAV:   4    -0.158579195537E+04   -0.32897E-06   -0.15455E-06  6020   0.200E-03    0.486E-04
DAV:   5    -0.158579195542E+04   -0.41076E-07   -0.71888E-07  6020   0.146E-03
  38 F= -.15857920E+04 E0= -.15857822E+04  d E =-.950970E-05
       N       E                     dE             d eps       ncg     rms          rms(c)
DAV:   1    -0.158579197625E+04   -0.20870E-04   -0.64628E-03 11648   0.104E-01    0.101E-02
DAV:   2    -0.158579197533E+04    0.92003E-06   -0.51749E-05 11464   0.949E-03    0.745E-03
DAV:   3    -0.158579197323E+04    0.20967E-05   -0.83497E-06  6321   0.495E-03    0.467E-03
DAV:   4    -0.158579197111E+04    0.21135E-05   -0.36020E-06  6104   0.390E-03    0.221E-03
DAV:   5    -0.158579197027E+04    0.84342E-06   -0.18406E-06  6097   0.289E-03
  39 F= -.15857920E+04 E0= -.15857823E+04  d E =-.148557E-04
       N       E                     dE             d eps       ncg     rms          rms(c)
DAV:   1    -0.158579196030E+04    0.10817E-04   -0.16313E-03 11648   0.527E-02    0.624E-03
DAV:   2    -0.158579196314E+04   -0.28418E-05   -0.83305E-06  6020   0.488E-03    0.395E-03
DAV:   3    -0.158579196459E+04   -0.14481E-05   -0.26876E-06  5985   0.299E-03    0.266E-03
DAV:   4    -0.158579196582E+04   -0.12338E-05   -0.13322E-06  6020   0.239E-03    0.136E-03
DAV:   5    -0.158579196671E+04   -0.88411E-06   -0.76962E-07  6020   0.158E-03
  40 F= -.15857920E+04 E0= -.15857823E+04  d E =0.356573E-05
       N       E                     dE             d eps       ncg     rms          rms(c)
DAV:   1    -0.158579197531E+04   -0.94837E-05   -0.12883E-03 11662   0.464E-02    0.409E-03
DAV:   2    -0.158579197551E+04   -0.20527E-06   -0.58285E-06  6020   0.390E-03    0.304E-03
DAV:   3    -0.158579197549E+04    0.19246E-07   -0.16629E-06  5992   0.209E-03    0.224E-03
DAV:   4    -0.158579197536E+04    0.12711E-06   -0.11708E-06  6020   0.183E-03    0.487E-04
DAV:   5    -0.158579197539E+04   -0.21885E-07   -0.46325E-07  6020   0.120E-03
  41 F= -.15857920E+04 E0= -.15857823E+04  d E =-.868043E-05
       N       E                     dE             d eps       ncg     rms          rms(c)
DAV:   1    -0.158579199308E+04   -0.17721E-04   -0.11609E-02 11620   0.139E-01    0.126E-02
DAV:   2    -0.158579199839E+04   -0.53098E-05   -0.95942E-05 15208   0.122E-02    0.977E-03
DAV:   3    -0.158579199692E+04    0.14703E-05   -0.74760E-06  6498   0.496E-03    0.642E-03
DAV:   4    -0.158579199518E+04    0.17406E-05   -0.52993E-06  6176   0.467E-03    0.166E-03
DAV:   5    -0.158579199509E+04    0.93897E-07   -0.15107E-06  6083   0.276E-03
  42 F= -.15857920E+04 E0= -.15857823E+04  d E =-.197037E-04
       N       E                     dE             d eps       ncg     rms          rms(c)
DAV:   1    -0.158579200298E+04   -0.77973E-05   -0.11909E-02 11620   0.141E-01    0.125E-02
DAV:   2    -0.158579200934E+04   -0.63639E-05   -0.10008E-04 15584   0.124E-02    0.972E-03
DAV:   3    -0.158579200815E+04    0.11995E-05   -0.67511E-06  6576   0.484E-03    0.665E-03
DAV:   4    -0.158579200668E+04    0.14630E-05   -0.53566E-06  6128   0.461E-03    0.163E-03
DAV:   5    -0.158579200661E+04    0.71310E-07   -0.15092E-06  6062   0.280E-03
  43 F= -.15857920E+04 E0= -.15857823E+04  d E =-.115213E-04
       N       E                     dE             d eps       ncg     rms          rms(c)
DAV:   1    -0.158579200725E+04   -0.56813E-06   -0.44444E-03 11648   0.860E-02    0.747E-03
DAV:   2    -0.158579200879E+04   -0.15371E-05   -0.24465E-05  7944   0.768E-03    0.561E-03
DAV:   3    -0.158579200914E+04   -0.35434E-06   -0.81923E-06  6185   0.441E-03    0.393E-03
DAV:   4    -0.158579200917E+04   -0.23011E-07   -0.50476E-06  6062   0.381E-03    0.839E-04
DAV:   5    -0.158579200936E+04   -0.19571E-06   -0.24672E-06  6062   0.271E-03
  44 F= -.15857920E+04 E0= -.15857823E+04  d E =-.274965E-05
