       N       E                     dE             d eps       ncg     rms          rms(c)
DAV:   1     0.193853231121E+04    0.19385E+04   -0.27680E+05 11172   0.142E+03
DAV:   2    -0.118720746006E+04   -0.31257E+04   -0.30053E+04 12918   0.266E+02
DAV:   3    -0.157731984876E+04   -0.39011E+03   -0.35448E+03 17496   0.821E+01
DAV:   4    -0.160241265650E+04   -0.25093E+02   -0.22645E+02 15872   0.162E+01
DAV:   5    -0.160355448097E+04   -0.11418E+01   -0.11132E+01 16784   0.446E+00    0.379E+01
DAV:   6    -0.156883842936E+04    0.34716E+02   -0.10909E+02 17456   0.147E+01    0.227E+01
DAV:   7    -0.155914135107E+04    0.96971E+01   -0.93707E+01 17672   0.155E+01    0.182E+01
DAV:   8    -0.154815727635E+04    0.10984E+02   -0.65539E+01 16528   0.115E+01    0.114E+01
DAV:   9    -0.154136506825E+04    0.67922E+01   -0.28828E+01 16320   0.839E+00    0.328E+00
DAV:  10    -0.154117030993E+04    0.19476E+00   -0.52854E+00 15832   0.322E+00    0.142E+00
DAV:  11    -0.154118142995E+04   -0.11120E-01   -0.65054E-01 14984   0.119E+00    0.106E+00
DAV:  12    -0.154116236337E+04    0.19067E-01   -0.20885E-01 14864   0.656E-01    0.658E-01
DAV:  13    -0.154114947241E+04    0.12891E-01   -0.65055E-02 14232   0.407E-01    0.396E-01
DAV:  14    -0.154114468351E+04    0.47889E-02   -0.21354E-02 15880   0.224E-01    0.225E-01
DAV:  15    -0.154114284103E+04    0.18425E-02   -0.86766E-03 15224   0.145E-01    0.107E-01
DAV:  16    -0.154114269730E+04    0.14373E-03   -0.30325E-03 15696   0.766E-02    0.546E-02
DAV:  17    -0.154114267738E+04    0.19918E-04   -0.81632E-04 14688   0.411E-02    0.295E-02
DAV:  18    -0.154114267509E+04    0.22869E-05   -0.22556E-04 15320   0.244E-02    0.195E-02
DAV:  19    -0.154114266042E+04    0.14678E-04   -0.80766E-05 13056   0.150E-02    0.102E-02
DAV:  20    -0.154114265502E+04    0.53992E-05   -0.23659E-05  6984   0.816E-03
   1 F= -.15411427E+04 E0= -.15411421E+04  d E =-.154114E+04
       N       E                     dE             d eps       ncg     rms          rms(c)
DAV:   1    -0.154489337905E+04   -0.37507E+01   -0.26710E+03 11172   0.799E+01    0.277E+01
DAV:   2    -0.151802841366E+04    0.26865E+02   -0.17258E+02 18680   0.187E+01    0.190E+01
DAV:   3    -0.151026885807E+04    0.77596E+01   -0.10435E+02 18672   0.142E+01    0.154E+01
DAV:   4    -0.150136491454E+04    0.89039E+01   -0.47890E+01 20312   0.901E+00    0.102E+01
DAV:   5    -0.149709534677E+04    0.42696E+01   -0.31281E+01 17912   0.670E+00    0.423E+00
DAV:   6    -0.149665852270E+04    0.43682E+00   -0.67588E+00 17200   0.325E+00    0.288E+00
DAV:   7    -0.149652354772E+04    0.13497E+00   -0.11111E+00 16160   0.149E+00    0.214E+00
DAV:   8    -0.149644799380E+04    0.75554E-01   -0.42433E-01 18200   0.721E-01    0.116E+00
DAV:   9    -0.149643546436E+04    0.12529E-01   -0.29593E-01 17944   0.530E-01    0.538E-01
DAV:  10    -0.149643681388E+04   -0.13495E-02   -0.74111E-02 18368   0.364E-01    0.456E-01
DAV:  11    -0.149642930464E+04    0.75092E-02   -0.30686E-02 18440   0.240E-01    0.225E-01
DAV:  12    -0.149642858052E+04    0.72412E-03   -0.13188E-02 18360   0.126E-01    0.114E-01
DAV:  13    -0.149642919775E+04   -0.61723E-03   -0.31033E-03 17440   0.698E-02    0.815E-02
DAV:  14    -0.149642945149E+04   -0.25375E-03   -0.16685E-03 17968   0.549E-02    0.723E-02
DAV:  15    -0.149642939152E+04    0.59973E-04   -0.79334E-04 17592   0.359E-02    0.451E-02
DAV:  16    -0.149642933831E+04    0.53208E-04   -0.41624E-04 18704   0.229E-02    0.150E-02
DAV:  17    -0.149642934128E+04   -0.29647E-05   -0.51211E-05 10344   0.989E-03
   2 F= -.14964293E+04 E0= -.14964333E+04  d E =0.447133E+02
       N       E                     dE             d eps       ncg     rms          rms(c)
DAV:   1    -0.157444172830E+04   -0.78012E+02   -0.13429E+03 11172   0.628E+01    0.193E+01
DAV:   2    -0.155976894289E+04    0.14673E+02   -0.48805E+01 17232   0.114E+01    0.104E+01
DAV:   3    -0.155715152252E+04    0.26174E+01   -0.32845E+01 18104   0.861E+00    0.863E+00
DAV:   4    -0.155391457795E+04    0.32369E+01   -0.15392E+01 17432   0.577E+00    0.544E+00
DAV:   5    -0.155243444176E+04    0.14801E+01   -0.83528E+00 16096   0.421E+00    0.182E+00
DAV:   6    -0.155234864316E+04    0.85799E-01   -0.17830E+00 15176   0.190E+00    0.938E-01
DAV:   7    -0.155235848675E+04   -0.98436E-02   -0.23362E-01 14552   0.720E-01    0.738E-01
DAV:   8    -0.155235843938E+04    0.47376E-04   -0.55414E-02 15760   0.323E-01    0.423E-01
DAV:   9    -0.155237158937E+04   -0.13150E-01   -0.73492E-02 16312   0.303E-01    0.293E-01
DAV:  10    -0.155237035050E+04    0.12389E-02   -0.13028E-02 15488   0.187E-01    0.164E-01
DAV:  11    -0.155236986811E+04    0.48239E-03   -0.41486E-03 16688   0.864E-02    0.872E-02
DAV:  12    -0.155236998077E+04   -0.11266E-03   -0.21414E-03 16496   0.586E-02    0.476E-02
DAV:  13    -0.155237029434E+04   -0.31357E-03   -0.80081E-04 14256   0.375E-02    0.291E-02
DAV:  14    -0.155237030854E+04   -0.14207E-04   -0.16199E-04 13528   0.187E-02    0.172E-02
DAV:  15    -0.155237030170E+04    0.68412E-05   -0.31125E-05  7320   0.910E-03
   3 F= -.15523703E+04 E0= -.15523940E+04  d E =-.559410E+02
       N       E                     dE             d eps       ncg     rms          rms(c)
DAV:   1    -0.155280877291E+04   -0.43846E+00   -0.27351E+01 11172   0.744E+00    0.129E+00
DAV:   2    -0.155277737583E+04    0.31397E-01   -0.46028E-01 16320   0.838E-01    0.797E-01
DAV:   3    -0.155276783255E+04    0.95433E-02   -0.14696E-01 18256   0.573E-01    0.666E-01
DAV:   4    -0.155274716090E+04    0.20672E-01   -0.70985E-02 16696   0.405E-01    0.352E-01
DAV:   5    -0.155274192341E+04    0.52375E-02   -0.34200E-02 15144   0.273E-01    0.115E-01
DAV:   6    -0.155274186979E+04    0.53621E-04   -0.64138E-03 14832   0.117E-01    0.755E-02
DAV:   7    -0.155274185762E+04    0.12174E-04   -0.12095E-03 15592   0.549E-02    0.564E-02
DAV:   8    -0.155274180987E+04    0.47743E-04   -0.49415E-04 16136   0.331E-02    0.324E-02
DAV:   9    -0.155274183121E+04   -0.21334E-04   -0.23701E-04 15048   0.204E-02    0.192E-02
DAV:  10    -0.155274184326E+04   -0.12057E-04   -0.64004E-05 11752   0.130E-02    0.111E-02
DAV:  11    -0.155274184350E+04   -0.23242E-06   -0.17602E-05  7032   0.815E-03
   4 F= -.15527418E+04 E0= -.15527627E+04  d E =-.371542E+00
       N       E                     dE             d eps       ncg     rms          rms(c)
DAV:   1    -0.155280232947E+04   -0.60486E-01   -0.43519E+00 11172   0.282E+00    0.465E-01
DAV:   2    -0.155281210682E+04   -0.97774E-02   -0.12555E-01 18128   0.555E-01    0.493E-01
DAV:   3    -0.155279740754E+04    0.14699E-01   -0.56040E-02 17936   0.375E-01    0.226E-01
DAV:   4    -0.155279557032E+04    0.18372E-02   -0.94987E-03 15976   0.134E-01    0.145E-01
DAV:   5    -0.155279484864E+04    0.72168E-03   -0.41722E-03 15192   0.976E-02    0.786E-02
DAV:   6    -0.155279459461E+04    0.25403E-03   -0.15911E-03 14584   0.601E-02    0.384E-02
DAV:   7    -0.155279455767E+04    0.36942E-04   -0.36893E-04 15816   0.323E-02    0.262E-02
DAV:   8    -0.155279455076E+04    0.69119E-05   -0.10706E-04 13320   0.152E-02    0.153E-02
DAV:   9    -0.155279455537E+04   -0.46157E-05   -0.41244E-05  8992   0.100E-02
   5 F= -.15527946E+04 E0= -.15528160E+04  d E =-.527119E-01
       N       E                     dE             d eps       ncg     rms          rms(c)
DAV:   1    -0.155281632378E+04   -0.21773E-01   -0.23555E+00 11172   0.205E+00    0.244E-01
DAV:   2    -0.155282305601E+04   -0.67322E-02   -0.48099E-02 17776   0.331E-01    0.322E-01
DAV:   3    -0.155281671605E+04    0.63400E-02   -0.19670E-02 17936   0.224E-01    0.131E-01
DAV:   4    -0.155281641068E+04    0.30538E-03   -0.28294E-03 16056   0.715E-02    0.889E-02
DAV:   5    -0.155281623642E+04    0.17425E-03   -0.14562E-03 14624   0.538E-02    0.394E-02
DAV:   6    -0.155281621569E+04    0.20734E-04   -0.45521E-04 15080   0.324E-02    0.210E-02
DAV:   7    -0.155281620136E+04    0.14332E-04   -0.12069E-04 14256   0.187E-02    0.131E-02
DAV:   8    -0.155281619199E+04    0.93648E-05   -0.27641E-05  7328   0.943E-03
   6 F= -.15528162E+04 E0= -.15528372E+04  d E =-.216366E-01
       N       E                     dE             d eps       ncg     rms          rms(c)
DAV:   1    -0.155282567737E+04   -0.94760E-02   -0.58998E-01 11298   0.107E+00    0.209E-01
DAV:   2    -0.155282710951E+04   -0.14321E-02   -0.19773E-02 18240   0.236E-01    0.224E-01
DAV:   3    -0.155282395515E+04    0.31544E-02   -0.10955E-02 17888   0.167E-01    0.976E-02
DAV:   4    -0.155282355511E+04    0.40004E-03   -0.18887E-03 15760   0.594E-02    0.615E-02
DAV:   5    -0.155282335296E+04    0.20216E-03   -0.86344E-04 15088   0.455E-02    0.307E-02
DAV:   6    -0.155282329499E+04    0.57967E-04   -0.29041E-04 14872   0.263E-02    0.165E-02
DAV:   7    -0.155282328485E+04    0.10141E-04   -0.63583E-05 12352   0.142E-02    0.108E-02
DAV:   8    -0.155282328602E+04   -0.11756E-05   -0.17266E-05  6560   0.700E-03
   7 F= -.15528233E+04 E0= -.15528445E+04  d E =-.709403E-02
       N       E                     dE             d eps       ncg     rms          rms(c)
DAV:   1    -0.155282939403E+04   -0.61092E-02   -0.40807E-01 11242   0.868E-01    0.119E-01
DAV:   2    -0.155283042391E+04   -0.10299E-02   -0.76378E-03 17528   0.135E-01    0.142E-01
DAV:   3    -0.155282925133E+04    0.11726E-02   -0.35721E-03 17736   0.961E-02    0.623E-02
DAV:   4    -0.155282918938E+04    0.61952E-04   -0.67532E-04 15296   0.358E-02    0.352E-02
DAV:   5    -0.155282917774E+04    0.11641E-04   -0.30413E-04 14624   0.256E-02    0.144E-02
DAV:   6    -0.155282917868E+04   -0.94657E-06   -0.73635E-05 12856   0.146E-02
   8 F= -.15528292E+04 E0= -.15528502E+04  d E =-.589266E-02
       N       E                     dE             d eps       ncg     rms          rms(c)
DAV:   1    -0.155283273424E+04   -0.35565E-02   -0.30731E-01 11277   0.738E-01    0.102E-01
DAV:   2    -0.155283408954E+04   -0.13553E-02   -0.82148E-03 18016   0.152E-01    0.152E-01
DAV:   3    -0.155283252127E+04    0.15683E-02   -0.43629E-03 17640   0.106E-01    0.504E-02
DAV:   4    -0.155283245230E+04    0.68971E-04   -0.49769E-04 16016   0.298E-02    0.353E-02
DAV:   5    -0.155283239949E+04    0.52809E-04   -0.22143E-04 14848   0.218E-02    0.178E-02
DAV:   6    -0.155283238305E+04    0.16440E-04   -0.79744E-05 13016   0.144E-02    0.997E-03
DAV:   7    -0.155283237849E+04    0.45617E-05   -0.19189E-05  7008   0.885E-03
   9 F= -.15528324E+04 E0= -.15528534E+04  d E =-.319981E-02
       N       E                     dE             d eps       ncg     rms          rms(c)
DAV:   1    -0.155283400310E+04   -0.16201E-02   -0.15031E-01 11270   0.520E-01    0.660E-02
DAV:   2    -0.155283449925E+04   -0.49615E-03   -0.28336E-03 17504   0.846E-02    0.901E-02
DAV:   3    -0.155283399861E+04    0.50064E-03   -0.13959E-03 17504   0.605E-02    0.348E-02
DAV:   4    -0.155283399482E+04    0.37849E-05   -0.21631E-04 15120   0.202E-02    0.195E-02
DAV:   5    -0.155283399844E+04   -0.36133E-05   -0.85187E-05 12936   0.139E-02
  10 F= -.15528340E+04 E0= -.15528549E+04  d E =-.161995E-02
       N       E                     dE             d eps       ncg     rms          rms(c)
DAV:   1    -0.155283505519E+04   -0.10604E-02   -0.50450E-02 11326   0.309E-01    0.555E-02
DAV:   2    -0.155283518153E+04   -0.12633E-03   -0.14725E-03 18208   0.648E-02    0.650E-02
DAV:   3    -0.155283490742E+04    0.27411E-03   -0.83778E-04 17872   0.463E-02    0.264E-02
DAV:   4    -0.155283486908E+04    0.38337E-04   -0.13113E-04 14904   0.154E-02    0.166E-02
DAV:   5    -0.155283484133E+04    0.27745E-04   -0.55248E-05 10592   0.122E-02    0.753E-03
DAV:   6    -0.155283483420E+04    0.71337E-05   -0.14975E-05  6496   0.756E-03
  11 F= -.15528348E+04 E0= -.15528558E+04  d E =-.835763E-03
       N       E                     dE             d eps       ncg     rms          rms(c)
DAV:   1    -0.155283562808E+04   -0.78674E-03   -0.71273E-02 11270   0.354E-01    0.398E-02
DAV:   2    -0.155283589160E+04   -0.26352E-03   -0.13368E-03 17800   0.584E-02    0.620E-02
DAV:   3    -0.155283564550E+04    0.24609E-03   -0.65162E-04 17712   0.412E-02    0.219E-02
DAV:   4    -0.155283564600E+04   -0.50157E-06   -0.76647E-05 12512   0.124E-02    0.130E-02
DAV:   5    -0.155283564843E+04   -0.24262E-05   -0.27023E-05  7336   0.886E-03
  12 F= -.15528356E+04 E0= -.15528565E+04  d E =-.814230E-03
       N       E                     dE             d eps       ncg     rms          rms(c)
DAV:   1    -0.155283619112E+04   -0.54511E-03   -0.47157E-02 11312   0.289E-01    0.374E-02
DAV:   2    -0.155283634142E+04   -0.15030E-03   -0.10521E-03 18184   0.526E-02    0.536E-02
DAV:   3    -0.155283615117E+04    0.19025E-03   -0.52983E-04 17912   0.368E-02    0.192E-02
DAV:   4    -0.155283613552E+04    0.15649E-04   -0.57593E-05 11096   0.106E-02    0.126E-02
DAV:   5    -0.155283612182E+04    0.13699E-04   -0.22811E-05  6640   0.851E-03    0.549E-03
DAV:   6    -0.155283611821E+04    0.36103E-05   -0.72412E-06  6232   0.559E-03
  13 F= -.15528361E+04 E0= -.15528570E+04  d E =-.469780E-03
       N       E                     dE             d eps       ncg     rms          rms(c)
DAV:   1    -0.155283637228E+04   -0.25046E-03   -0.15646E-02 11326   0.170E-01    0.234E-02
DAV:   2    -0.155283640476E+04   -0.32484E-04   -0.21901E-04 16984   0.215E-02    0.225E-02
DAV:   3    -0.155283638263E+04    0.22132E-04   -0.79809E-05 12728   0.152E-02    0.123E-02
DAV:   4    -0.155283638917E+04   -0.65402E-05   -0.20849E-05  6520   0.766E-03    0.577E-03
DAV:   5    -0.155283639515E+04   -0.59743E-05   -0.81903E-06  6216   0.551E-03
  14 F= -.15528364E+04 E0= -.15528573E+04  d E =-.276936E-03
       N       E                     dE             d eps       ncg     rms          rms(c)
DAV:   1    -0.155283667917E+04   -0.29000E-03   -0.20386E-02 11312   0.190E-01    0.232E-02
DAV:   2    -0.155283672896E+04   -0.49794E-04   -0.38569E-04 18200   0.316E-02    0.321E-02
DAV:   3    -0.155283666175E+04    0.67209E-04   -0.18564E-04 16712   0.219E-02    0.124E-02
DAV:   4    -0.155283665355E+04    0.82019E-05   -0.18319E-05  6936   0.715E-03    0.779E-03
DAV:   5    -0.155283664619E+04    0.73590E-05   -0.10387E-05  6216   0.562E-03
  15 F= -.15528366E+04 E0= -.15528575E+04  d E =-.251045E-03
       N       E                     dE             d eps       ncg     rms          rms(c)
DAV:   1    -0.155283686272E+04   -0.20917E-03   -0.22216E-02 11298   0.197E-01    0.194E-02
DAV:   2    -0.155283690821E+04   -0.45491E-04   -0.28500E-04 17424   0.247E-02    0.245E-02
DAV:   3    -0.155283687584E+04    0.32376E-04   -0.93766E-05 13808   0.163E-02    0.117E-02
DAV:   4    -0.155283687803E+04   -0.21969E-05   -0.17956E-05  6392   0.697E-03    0.566E-03
DAV:   5    -0.155283688069E+04   -0.26583E-05   -0.74072E-06  6200   0.539E-03
  16 F= -.15528369E+04 E0= -.15528577E+04  d E =-.234500E-03
       N       E                     dE             d eps       ncg     rms          rms(c)
DAV:   1    -0.155283701742E+04   -0.13938E-03   -0.85480E-03 11326   0.124E-01    0.168E-02
DAV:   2    -0.155283701828E+04   -0.86139E-06   -0.13727E-04 15608   0.186E-02    0.177E-02
DAV:   3    -0.155283699828E+04    0.19992E-04   -0.56716E-05 11008   0.134E-02    0.848E-03
DAV:   4    -0.155283699181E+04    0.64786E-05   -0.12587E-05  6216   0.607E-03    0.522E-03
DAV:   5    -0.155283698562E+04    0.61907E-05   -0.64527E-06  6040   0.473E-03
  17 F= -.15528370E+04 E0= -.15528578E+04  d E =-.104923E-03
       N       E                     dE             d eps       ncg     rms          rms(c)
DAV:   1    -0.155283708674E+04   -0.94934E-04   -0.67768E-03 11326   0.110E-01    0.123E-02
DAV:   2    -0.155283709947E+04   -0.12728E-04   -0.66130E-05 11776   0.119E-02    0.114E-02
DAV:   3    -0.155283709522E+04    0.42457E-05   -0.17786E-05  7168   0.817E-03    0.704E-03
DAV:   4    -0.155283710030E+04   -0.50755E-05   -0.94779E-06  5952   0.455E-03    0.287E-03
DAV:   5    -0.155283710268E+04   -0.23769E-05   -0.37838E-06  5928   0.376E-03
  18 F= -.15528371E+04 E0= -.15528579E+04  d E =-.117060E-03
       N       E                     dE             d eps       ncg     rms          rms(c)
DAV:   1    -0.155283722065E+04   -0.12035E-03   -0.10453E-02 11284   0.135E-01    0.134E-02
DAV:   2    -0.155283723160E+04   -0.10959E-04   -0.12360E-04 15584   0.165E-02    0.155E-02
DAV:   3    -0.155283721771E+04    0.13897E-04   -0.33994E-05  8825   0.113E-02    0.811E-03
DAV:   4    -0.155283721471E+04    0.30015E-05   -0.12355E-05  6080   0.552E-03    0.459E-03
DAV:   5    -0.155283721210E+04    0.26032E-05   -0.58713E-06  5976   0.485E-03
  19 F= -.15528372E+04 E0= -.15528580E+04  d E =-.109428E-03
       N       E                     dE             d eps       ncg     rms          rms(c)
DAV:   1    -0.155283729053E+04   -0.75825E-04   -0.71450E-03 11298   0.112E-01    0.109E-02
DAV:   2    -0.155283730207E+04   -0.11539E-04   -0.64242E-05 11560   0.117E-02    0.105E-02
DAV:   3    -0.155283729863E+04    0.34409E-05   -0.16568E-05  6944   0.759E-03    0.658E-03
DAV:   4    -0.155283730270E+04   -0.40729E-05   -0.83249E-06  5880   0.412E-03    0.249E-03
DAV:   5    -0.155283730448E+04   -0.17799E-05   -0.32786E-06  5880   0.338E-03
  20 F= -.15528373E+04 E0= -.15528581E+04  d E =-.923788E-04
       N       E                     dE             d eps       ncg     rms          rms(c)
DAV:   1    -0.155283736384E+04   -0.61137E-04   -0.29318E-03 11326   0.724E-02    0.920E-03
DAV:   2    -0.155283735839E+04    0.54494E-05   -0.24098E-05  7320   0.920E-03    0.766E-03
DAV:   3    -0.155283735500E+04    0.33871E-05   -0.10866E-05  6640   0.722E-03    0.467E-03
DAV:   4    -0.155283735120E+04    0.37978E-05   -0.50109E-06  5880   0.368E-03    0.250E-03
DAV:   5    -0.155283734900E+04    0.22070E-05   -0.28506E-06  5880   0.305E-03
  21 F= -.15528373E+04 E0= -.15528582E+04  d E =-.445158E-04
       N       E                     dE             d eps       ncg     rms          rms(c)
DAV:   1    -0.155283740739E+04   -0.56187E-04   -0.49458E-03 11284   0.928E-02    0.880E-03
DAV:   2    -0.155283741332E+04   -0.59310E-05   -0.40131E-05  9512   0.871E-03    0.726E-03
DAV:   3    -0.155283741332E+04    0.47248E-08   -0.10026E-05  6145   0.547E-03    0.542E-03
DAV:   4    -0.155283741612E+04   -0.28022E-05   -0.58949E-06  5880   0.371E-03    0.164E-03
DAV:   5    -0.155283741696E+04   -0.84469E-06   -0.25575E-06  5880   0.288E-03
  22 F= -.15528374E+04 E0= -.15528582E+04  d E =-.679670E-04
       N       E                     dE             d eps       ncg     rms          rms(c)
DAV:   1    -0.155283747296E+04   -0.56842E-04   -0.43960E-03 11284   0.875E-02    0.846E-03
DAV:   2    -0.155283747113E+04    0.18275E-05   -0.30845E-05  8144   0.892E-03    0.700E-03
DAV:   3    -0.155283746967E+04    0.14615E-05   -0.11371E-05  6168   0.620E-03    0.493E-03
DAV:   4    -0.155283746706E+04    0.26096E-05   -0.59365E-06  5880   0.377E-03    0.245E-03
DAV:   5    -0.155283746577E+04    0.12913E-05   -0.33383E-06  5880   0.319E-03
  23 F= -.15528375E+04 E0= -.15528583E+04  d E =-.488073E-04
       N       E                     dE             d eps       ncg     rms          rms(c)
DAV:   1    -0.155283749843E+04   -0.31371E-04   -0.22748E-03 11312   0.632E-02    0.659E-03
DAV:   2    -0.155283750274E+04   -0.43055E-05   -0.15977E-05  6072   0.602E-03    0.469E-03
DAV:   3    -0.155283750407E+04   -0.13309E-05   -0.65199E-06  5873   0.418E-03    0.357E-03
DAV:   4    -0.155283750666E+04   -0.25840E-05   -0.38457E-06  5859   0.320E-03    0.143E-03
DAV:   5    -0.155283750789E+04   -0.12307E-05   -0.21917E-06  5859   0.246E-03
  24 F= -.15528375E+04 E0= -.15528583E+04  d E =-.421138E-04
       N       E                     dE             d eps       ncg     rms          rms(c)
DAV:   1    -0.155283754560E+04   -0.38944E-04   -0.23703E-03 11284   0.642E-02    0.649E-03
DAV:   2    -0.155283754304E+04    0.25582E-05   -0.16246E-05  7192   0.639E-03    0.476E-03
DAV:   3    -0.155283754248E+04    0.56353E-06   -0.66104E-06  6009   0.454E-03    0.368E-03
DAV:   4    -0.155283754054E+04    0.19390E-05   -0.36765E-06  5859   0.317E-03    0.185E-03
DAV:   5    -0.155283753950E+04    0.10352E-05   -0.22291E-06  5859   0.257E-03
  25 F= -.15528375E+04 E0= -.15528584E+04  d E =-.316168E-04
       N       E                     dE             d eps       ncg     rms          rms(c)
DAV:   1    -0.155283757350E+04   -0.32966E-04   -0.30303E-03 11284   0.724E-02    0.648E-03
DAV:   2    -0.155283757647E+04   -0.29675E-05   -0.19153E-05  6920   0.650E-03    0.491E-03
DAV:   3    -0.155283757740E+04   -0.92950E-06   -0.72829E-06  5889   0.414E-03    0.375E-03
DAV:   4    -0.155283757928E+04   -0.18814E-05   -0.46751E-06  5838   0.339E-03    0.936E-04
DAV:   5    -0.155283757967E+04   -0.39145E-06   -0.23854E-06  5838   0.257E-03
  26 F= -.15528376E+04 E0= -.15528584E+04  d E =-.401713E-04
       N       E                     dE             d eps       ncg     rms          rms(c)
DAV:   1    -0.155283761184E+04   -0.32562E-04   -0.23140E-03 11284   0.635E-02    0.649E-03
DAV:   2    -0.155283760869E+04    0.31548E-05   -0.16282E-05  6704   0.636E-03    0.461E-03
DAV:   3    -0.155283760804E+04    0.65090E-06   -0.66550E-06  5953   0.456E-03    0.361E-03
DAV:   4    -0.155283760594E+04    0.21004E-05   -0.36647E-06  5838   0.320E-03    0.182E-03
DAV:   5    -0.155283760478E+04    0.11531E-05   -0.22443E-06  5838   0.255E-03
  27 F= -.15528376E+04 E0= -.15528584E+04  d E =-.251110E-04
       N       E                     dE             d eps       ncg     rms          rms(c)
DAV:   1    -0.155283761963E+04   -0.13691E-04   -0.81688E-04 11284   0.379E-02    0.426E-03
DAV:   2    -0.155283762247E+04   -0.28394E-05   -0.65580E-06  5886   0.382E-03    0.289E-03
DAV:   3    -0.155283762359E+04   -0.11196E-05   -0.28367E-06  5824   0.280E-03    0.216E-03
DAV:   4    -0.155283762511E+04   -0.15207E-05   -0.16441E-06  5838   0.214E-03    0.988E-04
DAV:   5    -0.155283762597E+04   -0.86547E-06   -0.98923E-07  5838   0.165E-03
  28 F= -.15528376E+04 E0= -.15528584E+04  d E =-.211891E-04
       N       E                     dE             d eps       ncg     rms          rms(c)
DAV:   1    -0.155283765314E+04   -0.28034E-04   -0.23145E-03 11284   0.632E-02    0.561E-03
DAV:   2    -0.155283765283E+04    0.30850E-06   -0.13884E-05  6680   0.570E-03    0.432E-03
DAV:   3    -0.155283765279E+04    0.43638E-07   -0.52774E-06  5928   0.362E-03    0.337E-03
DAV:   4    -0.155283765179E+04    0.10000E-05   -0.33044E-06  5838   0.281E-03    0.109E-03
DAV:   5    -0.155283765168E+04    0.10571E-06   -0.17537E-06  5838   0.219E-03
  29 F= -.15528377E+04 E0= -.15528585E+04  d E =-.257108E-04
       N       E                     dE             d eps       ncg     rms          rms(c)
DAV:   1    -0.155283769010E+04   -0.38306E-04   -0.83198E-03 11256   0.120E-01    0.106E-02
DAV:   2    -0.155283769816E+04   -0.80622E-05   -0.75924E-05 13168   0.102E-02    0.814E-03
DAV:   3    -0.155283769924E+04   -0.10797E-05   -0.69790E-06  6080   0.464E-03    0.569E-03
DAV:   4    -0.155283770071E+04   -0.14734E-05   -0.37779E-06  5880   0.395E-03    0.200E-03
DAV:   5    -0.155283770138E+04   -0.66471E-06   -0.16428E-06  5880   0.266E-03
  30 F= -.15528377E+04 E0= -.15528585E+04  d E =-.496915E-04
       N       E                     dE             d eps       ncg     rms          rms(c)
DAV:   1    -0.155283769394E+04    0.67740E-05   -0.89622E-04 11284   0.404E-02    0.531E-03
DAV:   2    -0.155283768896E+04    0.49818E-05   -0.49921E-06  5810   0.377E-03    0.325E-03
DAV:   3    -0.155283768729E+04    0.16670E-05   -0.18608E-06  5810   0.271E-03    0.255E-03
DAV:   4    -0.155283768507E+04    0.22164E-05   -0.96567E-07  5810   0.201E-03    0.114E-03
DAV:   5    -0.155283768382E+04    0.12557E-05   -0.55816E-07  5817   0.125E-03
  31 F= -.15528377E+04 E0= -.15528585E+04  d E =0.175596E-04
       N       E                     dE             d eps       ncg     rms          rms(c)
DAV:   1    -0.155283770871E+04   -0.23640E-04   -0.28878E-03 11277   0.708E-02    0.584E-03
DAV:   2    -0.155283770925E+04   -0.53682E-06   -0.13695E-05  5825   0.573E-03    0.442E-03
DAV:   3    -0.155283770940E+04   -0.14938E-06   -0.44485E-06  5810   0.319E-03    0.337E-03
DAV:   4    -0.155283770922E+04    0.17667E-06   -0.29811E-06  5817   0.276E-03    0.827E-04
DAV:   5    -0.155283770933E+04   -0.10524E-06   -0.13358E-06  5817   0.186E-03
  32 F= -.15528377E+04 E0= -.15528585E+04  d E =-.255107E-04
       N       E                     dE             d eps       ncg     rms          rms(c)
DAV:   1    -0.155283777410E+04   -0.64873E-04   -0.46552E-02 11172   0.284E-01    0.238E-02
DAV:   2    -0.155283779999E+04   -0.25894E-04   -0.40052E-04 16528   0.235E-02    0.188E-02
DAV:   3    -0.155283779647E+04    0.35160E-05   -0.19355E-05  7619   0.848E-03    0.144E-02
DAV:   4    -0.155283779003E+04    0.64448E-05   -0.20346E-05  6856   0.851E-03    0.373E-03
DAV:   5    -0.155283778968E+04    0.35103E-06   -0.60557E-06  6034   0.544E-03
  33 F= -.15528378E+04 E0= -.15528586E+04  d E =-.803500E-04
       N       E                     dE             d eps       ncg     rms          rms(c)
DAV:   1    -0.155283781125E+04   -0.21218E-04   -0.13415E-02 11242   0.152E-01    0.123E-02
DAV:   2    -0.155283781964E+04   -0.83965E-05   -0.12124E-04 15336   0.130E-02    0.998E-03
DAV:   3    -0.155283781860E+04    0.10423E-05   -0.69347E-06  6193   0.506E-03    0.806E-03
DAV:   4    -0.155283781680E+04    0.17959E-05   -0.59804E-06  5952   0.429E-03    0.285E-03
DAV:   5    -0.155283781653E+04    0.27933E-06   -0.24208E-06  5880   0.330E-03
  34 F= -.15528378E+04 E0= -.15528586E+04  d E =-.268478E-04
       N       E                     dE             d eps       ncg     rms          rms(c)
DAV:   1    -0.155283782473E+04   -0.79290E-05   -0.38215E-03 11256   0.813E-02    0.649E-03
DAV:   2    -0.155283782624E+04   -0.15040E-05   -0.21036E-05  7168   0.700E-03    0.502E-03
DAV:   3    -0.155283782667E+04   -0.42971E-06   -0.75359E-06  5928   0.413E-03    0.384E-03
DAV:   4    -0.155283782684E+04   -0.17147E-06   -0.45709E-06  5880   0.336E-03    0.125E-03
DAV:   5    -0.155283782708E+04   -0.24135E-06   -0.24404E-06  5880   0.257E-03
  35 F= -.15528378E+04 E0= -.15528586E+04  d E =-.105548E-04
       N       E                     dE             d eps       ncg     rms          rms(c)
DAV:   1    -0.155283783294E+04   -0.61045E-05   -0.51115E-03 11256   0.938E-02    0.786E-03
DAV:   2    -0.155283783527E+04   -0.23297E-05   -0.40981E-05  9856   0.817E-03    0.615E-03
DAV:   3    -0.155283783521E+04    0.59657E-07   -0.82859E-06  5952   0.458E-03    0.383E-03
DAV:   4    -0.155283783480E+04    0.40960E-06   -0.43353E-06  5880   0.370E-03    0.123E-03
DAV:   5    -0.155283783488E+04   -0.79729E-07   -0.20753E-06  5880   0.247E-03
  36 F= -.15528378E+04 E0= -.15528586E+04  d E =-.780338E-05
       N       E                     dE             d eps       ncg     rms          rms(c)
DAV:   1    -0.155283783558E+04   -0.77250E-06   -0.50244E-04 11284   0.294E-02    0.259E-03
DAV:   2    -0.155283783681E+04   -0.12372E-05   -0.39647E-06  5796   0.295E-03    0.200E-03
DAV:   3    -0.155283783711E+04   -0.29722E-06   -0.16459E-06  5789   0.202E-03    0.154E-03
DAV:   4    -0.155283783792E+04   -0.81331E-06   -0.98035E-07  5796   0.150E-03    0.570E-04
DAV:   5    -0.155283783820E+04   -0.28077E-06   -0.56174E-07  5796   0.124E-03
  37 F= -.15528378E+04 E0= -.15528586E+04  d E =-.332130E-05
