       N       E                     dE             d eps       ncg     rms          rms(c)
DAV:   1     0.225458070920E+04    0.22546E+04   -0.29306E+05 11704   0.143E+03
DAV:   2    -0.119727915262E+04   -0.34519E+04   -0.33134E+04 13572   0.302E+02
DAV:   3    -0.163536378202E+04   -0.43808E+03   -0.40618E+03 18040   0.819E+01
DAV:   4    -0.166032545646E+04   -0.24962E+02   -0.23328E+02 16400   0.175E+01
DAV:   5    -0.166142325916E+04   -0.10978E+01   -0.10787E+01 18080   0.418E+00    0.418E+01
DAV:   6    -0.161721472569E+04    0.44209E+02   -0.14566E+02 17856   0.162E+01    0.233E+01
DAV:   7    -0.160532426470E+04    0.11890E+02   -0.99383E+01 18320   0.162E+01    0.175E+01
DAV:   8    -0.159443020627E+04    0.10894E+02   -0.60164E+01 17424   0.124E+01    0.957E+00
DAV:   9    -0.158949369912E+04    0.49365E+01   -0.25067E+01 16704   0.783E+00    0.275E+00
DAV:  10    -0.158956041474E+04   -0.66716E-01   -0.45248E+00 16808   0.289E+00    0.167E+00
DAV:  11    -0.158954056880E+04    0.19846E-01   -0.48273E-01 15456   0.104E+00    0.112E+00
DAV:  12    -0.158952049785E+04    0.20071E-01   -0.19443E-01 14800   0.726E-01    0.639E-01
DAV:  13    -0.158950708975E+04    0.13408E-01   -0.62685E-02 14872   0.449E-01    0.345E-01
DAV:  14    -0.158950280513E+04    0.42846E-02   -0.20211E-02 14384   0.206E-01    0.132E-01
DAV:  15    -0.158950243729E+04    0.36784E-03   -0.48766E-03 15904   0.111E-01    0.724E-02
DAV:  16    -0.158950232910E+04    0.10819E-03   -0.15930E-03 15512   0.654E-02    0.419E-02
DAV:  17    -0.158950229754E+04    0.31553E-04   -0.49273E-04 14416   0.357E-02    0.222E-02
DAV:  18    -0.158950227496E+04    0.22587E-04   -0.12443E-04 13880   0.181E-02    0.106E-02
DAV:  19    -0.158950226741E+04    0.75431E-05   -0.27405E-05  8264   0.956E-03
   1 F= -.15895023E+04 E0= -.15895036E+04  d E =-.158950E+04
       N       E                     dE             d eps       ncg     rms          rms(c)
DAV:   1    -0.159403466025E+04   -0.45324E+01   -0.13080E+03 11704   0.542E+01    0.194E+01
DAV:   2    -0.157941322813E+04    0.14621E+02   -0.81811E+01 18024   0.121E+01    0.110E+01
DAV:   3    -0.157497287357E+04    0.44404E+01   -0.42787E+01 19608   0.924E+00    0.767E+00
DAV:   4    -0.157267602464E+04    0.22968E+01   -0.13609E+01 19480   0.580E+00    0.529E+00
DAV:   5    -0.157127308241E+04    0.14029E+01   -0.85622E+00 17176   0.393E+00    0.167E+00
DAV:   6    -0.157121974046E+04    0.53342E-01   -0.14300E+00 16136   0.166E+00    0.105E+00
DAV:   7    -0.157121031820E+04    0.94223E-02   -0.24398E-01 15440   0.743E-01    0.746E-01
DAV:   8    -0.157120541738E+04    0.49008E-02   -0.83263E-02 17136   0.359E-01    0.401E-01
DAV:   9    -0.157121098121E+04   -0.55638E-02   -0.58580E-02 17464   0.262E-01    0.252E-01
DAV:  10    -0.157121023437E+04    0.74684E-03   -0.11985E-02 16544   0.175E-01    0.142E-01
DAV:  11    -0.157120971554E+04    0.51883E-03   -0.39403E-03 17632   0.896E-02    0.792E-02
DAV:  12    -0.157120972713E+04   -0.11592E-04   -0.25404E-03 18088   0.614E-02    0.458E-02
DAV:  13    -0.157120986089E+04   -0.13376E-03   -0.54287E-04 15880   0.311E-02    0.242E-02
DAV:  14    -0.157120987278E+04   -0.11889E-04   -0.16719E-04 15608   0.198E-02    0.144E-02
DAV:  15    -0.157120987306E+04   -0.28729E-06   -0.45565E-05  9736   0.107E-02
   2 F= -.15712099E+04 E0= -.15712174E+04  d E =0.182924E+02
       N       E                     dE             d eps       ncg     rms          rms(c)
DAV:   1    -0.160530329190E+04   -0.34093E+02   -0.58561E+02 11704   0.402E+01    0.136E+01
DAV:   2    -0.159718541036E+04    0.81179E+01   -0.22457E+01 16392   0.732E+00    0.642E+00
DAV:   3    -0.159589966018E+04    0.12858E+01   -0.11426E+01 16816   0.510E+00    0.491E+00
DAV:   4    -0.159476427515E+04    0.11354E+01   -0.48561E+00 17584   0.407E+00    0.272E+00
DAV:   5    -0.159437256934E+04    0.39171E+00   -0.26578E+00 16384   0.251E+00    0.805E-01
DAV:   6    -0.159437597789E+04   -0.34085E-02   -0.41037E-01 14448   0.984E-01    0.566E-01
DAV:   7    -0.159437812093E+04   -0.21430E-02   -0.65488E-02 15728   0.381E-01    0.408E-01
DAV:   8    -0.159438135268E+04   -0.32317E-02   -0.24659E-02 15800   0.201E-01    0.190E-01
DAV:   9    -0.159438679574E+04   -0.54431E-02   -0.16274E-02 15624   0.154E-01    0.153E-01
DAV:  10    -0.159438615047E+04    0.64527E-03   -0.37787E-03 15704   0.945E-02    0.579E-02
DAV:  11    -0.159438630055E+04   -0.15008E-03   -0.15062E-03 17328   0.505E-02    0.385E-02
DAV:  12    -0.159438650389E+04   -0.20334E-03   -0.42341E-04 15416   0.308E-02    0.374E-02
DAV:  13    -0.159438651129E+04   -0.74042E-05   -0.16040E-04 15016   0.176E-02    0.155E-02
DAV:  14    -0.159438650319E+04    0.81034E-05   -0.50576E-05 10024   0.896E-03
   3 F= -.15943865E+04 E0= -.15943736E+04  d E =-.231766E+02
       N       E                     dE             d eps       ncg     rms          rms(c)
DAV:   1    -0.159447818382E+04   -0.91673E-01   -0.12514E+01 11704   0.460E+00    0.594E-01
DAV:   2    -0.159449544609E+04   -0.17262E-01   -0.25816E-01 17744   0.746E-01    0.526E-01
DAV:   3    -0.159448046300E+04    0.14983E-01   -0.75751E-02 18496   0.472E-01    0.301E-01
DAV:   4    -0.159447843271E+04    0.20303E-02   -0.12924E-02 17024   0.169E-01    0.195E-01
DAV:   5    -0.159447758100E+04    0.85171E-03   -0.69372E-03 15624   0.124E-01    0.732E-02
DAV:   6    -0.159447748013E+04    0.10087E-03   -0.19349E-03 16128   0.737E-02    0.455E-02
DAV:   7    -0.159447741045E+04    0.69687E-04   -0.51454E-04 16416   0.383E-02    0.268E-02
DAV:   8    -0.159447738897E+04    0.21474E-04   -0.14259E-04 14792   0.171E-02    0.154E-02
DAV:   9    -0.159447738208E+04    0.68918E-05   -0.50551E-05 11184   0.970E-03
   4 F= -.15944774E+04 E0= -.15944647E+04  d E =-.908789E-01
       N       E                     dE             d eps       ncg     rms          rms(c)
DAV:   1    -0.159449865452E+04   -0.21266E-01   -0.31436E+00 11704   0.232E+00    0.352E-01
DAV:   2    -0.159450438991E+04   -0.57354E-02   -0.78281E-02 18272   0.464E-01    0.348E-01
DAV:   3    -0.159449599815E+04    0.83918E-02   -0.32999E-02 18736   0.313E-01    0.161E-01
DAV:   4    -0.159449523853E+04    0.75962E-03   -0.42280E-03 16656   0.967E-02    0.104E-01
DAV:   5    -0.159449487259E+04    0.36594E-03   -0.21601E-03 15336   0.700E-02    0.454E-02
DAV:   6    -0.159449481199E+04    0.60600E-04   -0.64958E-04 15672   0.436E-02    0.281E-02
DAV:   7    -0.159449478695E+04    0.25045E-04   -0.17734E-04 15568   0.230E-02    0.172E-02
DAV:   8    -0.159449478727E+04   -0.31914E-06   -0.43440E-05  9560   0.991E-03
   5 F= -.15944948E+04 E0= -.15944820E+04  d E =-.174052E-01
       N       E                     dE             d eps       ncg     rms          rms(c)
DAV:   1    -0.159450073131E+04   -0.59444E-02   -0.24954E-01 11836   0.794E-01    0.247E-01
DAV:   2    -0.159449818794E+04    0.25434E-02   -0.76314E-03 16280   0.125E-01    0.116E-01
DAV:   3    -0.159449772816E+04    0.45978E-03   -0.35164E-03 16264   0.796E-02    0.756E-02
DAV:   4    -0.159449760086E+04    0.12730E-03   -0.13215E-03 17584   0.635E-02    0.450E-02
DAV:   5    -0.159449751902E+04    0.81838E-04   -0.65031E-04 17248   0.431E-02    0.147E-02
DAV:   6    -0.159449752496E+04   -0.59386E-05   -0.12498E-04 14008   0.172E-02    0.100E-02
DAV:   7    -0.159449752479E+04    0.17055E-06   -0.18417E-05  7064   0.722E-03
   6 F= -.15944975E+04 E0= -.15944849E+04  d E =-.273752E-02
       N       E                     dE             d eps       ncg     rms          rms(c)
DAV:   1    -0.159450457536E+04   -0.70504E-02   -0.48488E-01 11736   0.926E-01    0.164E-01
DAV:   2    -0.159450512069E+04   -0.54533E-03   -0.12701E-02 18248   0.192E-01    0.150E-01
DAV:   3    -0.159450358965E+04    0.15310E-02   -0.60481E-03 18728   0.134E-01    0.721E-02
DAV:   4    -0.159450337984E+04    0.20982E-03   -0.89824E-04 16312   0.445E-02    0.431E-02
DAV:   5    -0.159450327756E+04    0.10227E-03   -0.42118E-04 15296   0.318E-02    0.180E-02
DAV:   6    -0.159450326128E+04    0.16284E-04   -0.10899E-04 14312   0.185E-02    0.114E-02
DAV:   7    -0.159450325736E+04    0.39164E-05   -0.24311E-05  8032   0.954E-03
   7 F= -.15945033E+04 E0= -.15944906E+04  d E =-.573258E-02
       N       E                     dE             d eps       ncg     rms          rms(c)
DAV:   1    -0.159450517558E+04   -0.19143E-02   -0.23458E-01 11764   0.626E-01    0.722E-02
DAV:   2    -0.159450565026E+04   -0.47468E-03   -0.37631E-03 17448   0.106E-01    0.823E-02
DAV:   3    -0.159450519741E+04    0.45285E-03   -0.15159E-03 17672   0.683E-02    0.395E-02
DAV:   4    -0.159450517627E+04    0.21140E-04   -0.23728E-04 16048   0.225E-02    0.170E-02
DAV:   5    -0.159450517488E+04    0.13813E-05   -0.79148E-05 13680   0.146E-02
   8 F= -.15945052E+04 E0= -.15944925E+04  d E =-.191752E-02
       N       E                     dE             d eps       ncg     rms          rms(c)
DAV:   1    -0.159450601563E+04   -0.83936E-03   -0.67544E-02 11808   0.352E-01    0.695E-02
DAV:   2    -0.159450592646E+04    0.89162E-04   -0.15053E-03 17728   0.632E-02    0.514E-02
DAV:   3    -0.159450577496E+04    0.15150E-03   -0.72542E-04 18968   0.463E-02    0.305E-02
DAV:   4    -0.159450571533E+04    0.59631E-04   -0.15747E-04 16040   0.189E-02    0.167E-02
DAV:   5    -0.159450568378E+04    0.31549E-04   -0.69424E-05 13040   0.130E-02    0.574E-03
DAV:   6    -0.159450568132E+04    0.24583E-05   -0.11035E-05  6832   0.644E-03
   9 F= -.15945057E+04 E0= -.15944930E+04  d E =-.506438E-03
       N       E                     dE             d eps       ncg     rms          rms(c)
DAV:   1    -0.159450638989E+04   -0.70611E-03   -0.32921E-02 11808   0.247E-01    0.473E-02
DAV:   2    -0.159450637032E+04    0.19570E-04   -0.45272E-04 16832   0.319E-02    0.277E-02
DAV:   3    -0.159450636266E+04    0.76621E-05   -0.17957E-04 17328   0.230E-02    0.215E-02
DAV:   4    -0.159450635762E+04    0.50396E-05   -0.65585E-05 12184   0.135E-02    0.994E-03
DAV:   5    -0.159450636669E+04   -0.90739E-05   -0.24189E-05  6928   0.868E-03
  10 F= -.15945064E+04 E0= -.15944937E+04  d E =-.685370E-03
       N       E                     dE             d eps       ncg     rms          rms(c)
DAV:   1    -0.159450692443E+04   -0.56682E-03   -0.57502E-02 11764   0.310E-01    0.339E-02
DAV:   2    -0.159450697974E+04   -0.55307E-04   -0.69967E-04 17824   0.416E-02    0.326E-02
DAV:   3    -0.159450692426E+04    0.55481E-04   -0.21871E-04 17384   0.264E-02    0.197E-02
DAV:   4    -0.159450691044E+04    0.13815E-04   -0.36464E-05  8880   0.947E-03    0.897E-03
DAV:   5    -0.159450690523E+04    0.52172E-05   -0.13735E-05  6744   0.707E-03
  11 F= -.15945069E+04 E0= -.15944943E+04  d E =-.538535E-03
       N       E                     dE             d eps       ncg     rms          rms(c)
DAV:   1    -0.159450740679E+04   -0.49635E-03   -0.87675E-02 11756   0.383E-01    0.394E-02
DAV:   2    -0.159450747645E+04   -0.69659E-04   -0.83514E-04 17104   0.412E-02    0.325E-02
DAV:   3    -0.159450744797E+04    0.28480E-04   -0.17053E-04 16724   0.231E-02    0.238E-02
DAV:   4    -0.159450744568E+04    0.22892E-05   -0.59460E-05 12000   0.114E-02    0.638E-03
DAV:   5    -0.159450744754E+04   -0.18594E-05   -0.11336E-05  6830   0.661E-03
  12 F= -.15945074E+04 E0= -.15944948E+04  d E =-.542312E-03
       N       E                     dE             d eps       ncg     rms          rms(c)
DAV:   1    -0.159450750678E+04   -0.61100E-04   -0.21699E-03 11888   0.739E-02    0.238E-02
DAV:   2    -0.159450745948E+04    0.47300E-04   -0.62698E-05 11688   0.124E-02    0.110E-02
DAV:   3    -0.159450744560E+04    0.13877E-04   -0.21502E-05  7296   0.877E-03    0.726E-03
DAV:   4    -0.159450743660E+04    0.90048E-05   -0.70537E-06  6920   0.687E-03    0.403E-03
DAV:   5    -0.159450742937E+04    0.72225E-05   -0.44188E-06  6272   0.414E-03
  13 F= -.15945074E+04 E0= -.15944948E+04  d E =0.181637E-04
       N       E                     dE             d eps       ncg     rms          rms(c)
DAV:   1    -0.159450772521E+04   -0.28862E-03   -0.32513E-02 11762   0.233E-01    0.224E-02
DAV:   2    -0.159450774855E+04   -0.23338E-04   -0.27789E-04 16984   0.229E-02    0.182E-02
DAV:   3    -0.159450774135E+04    0.72009E-05   -0.31425E-05  9036   0.114E-02    0.141E-02
DAV:   4    -0.159450774179E+04   -0.43712E-06   -0.26385E-05  6720   0.803E-03    0.305E-03
DAV:   5    -0.159450774199E+04   -0.20494E-06   -0.57734E-06  6276   0.549E-03
  14 F= -.15945077E+04 E0= -.15944951E+04  d E =-.312619E-03
       N       E                     dE             d eps       ncg     rms          rms(c)
DAV:   1    -0.159450809256E+04   -0.35077E-03   -0.63385E-02 11732   0.324E-01    0.312E-02
DAV:   2    -0.159450812266E+04   -0.30099E-04   -0.56074E-04 17072   0.319E-02    0.252E-02
DAV:   3    -0.159450810861E+04    0.14046E-04   -0.76009E-05 13570   0.157E-02    0.195E-02
DAV:   4    -0.159450809397E+04    0.14641E-04   -0.38447E-05  9384   0.962E-03    0.646E-03
DAV:   5    -0.159450809084E+04    0.31325E-05   -0.97039E-06  6568   0.632E-03
  15 F= -.15945081E+04 E0= -.15944955E+04  d E =-.348847E-03
       N       E                     dE             d eps       ncg     rms          rms(c)
DAV:   1    -0.159450808627E+04    0.77019E-05   -0.10405E-03 11872   0.520E-02    0.173E-02
DAV:   2    -0.159450808824E+04   -0.19682E-05   -0.28186E-05  6792   0.982E-03    0.831E-03
DAV:   3    -0.159450809162E+04   -0.33843E-05   -0.12991E-05  6488   0.902E-03    0.634E-03
DAV:   4    -0.159450809520E+04   -0.35752E-05   -0.56780E-06  6320   0.585E-03    0.241E-03
DAV:   5    -0.159450809926E+04   -0.40614E-05   -0.30589E-06  6272   0.292E-03
  16 F= -.15945081E+04 E0= -.15944955E+04  d E =-.841972E-05
       N       E                     dE             d eps       ncg     rms          rms(c)
DAV:   1    -0.159450830016E+04   -0.20496E-03   -0.19137E-02 11764   0.179E-01    0.192E-02
DAV:   2    -0.159450829776E+04    0.23977E-05   -0.16971E-04 16592   0.171E-02    0.138E-02
DAV:   3    -0.159450829207E+04    0.56963E-05   -0.17502E-05  7982   0.833E-03    0.106E-02
DAV:   4    -0.159450828479E+04    0.72727E-05   -0.10807E-05  6464   0.662E-03    0.501E-03
DAV:   5    -0.159450828090E+04    0.38892E-05   -0.55228E-06  6270   0.480E-03
  17 F= -.15945083E+04 E0= -.15944957E+04  d E =-.181643E-03
       N       E                     dE             d eps       ncg     rms          rms(c)
DAV:   1    -0.159450844317E+04   -0.15838E-03   -0.20744E-02 11744   0.186E-01    0.172E-02
DAV:   2    -0.159450845653E+04   -0.13357E-04   -0.17527E-04 16736   0.168E-02    0.133E-02
DAV:   3    -0.159450845513E+04    0.13982E-05   -0.10591E-05  7438   0.643E-03    0.993E-03
DAV:   4    -0.159450845450E+04    0.63101E-06   -0.11317E-05  6416   0.619E-03    0.218E-03
DAV:   5    -0.159450845448E+04    0.17207E-07   -0.26956E-06  6270   0.395E-03
  18 F= -.15945085E+04 E0= -.15944959E+04  d E =-.173576E-03
       N       E                     dE             d eps       ncg     rms          rms(c)
DAV:   1    -0.159450865173E+04   -0.19723E-03   -0.37506E-02 11732   0.251E-01    0.264E-02
DAV:   2    -0.159450865147E+04    0.25617E-06   -0.33803E-04 17080   0.237E-02    0.189E-02
DAV:   3    -0.159450864207E+04    0.94043E-05   -0.33707E-05  9282   0.106E-02    0.142E-02
DAV:   4    -0.159450863043E+04    0.11640E-04   -0.18379E-05  7632   0.899E-03    0.678E-03
DAV:   5    -0.159450862441E+04    0.60215E-05   -0.93697E-06  6314   0.633E-03
  19 F= -.15945086E+04 E0= -.15944961E+04  d E =-.169928E-03
       N       E                     dE             d eps       ncg     rms          rms(c)
DAV:   1    -0.159450860788E+04    0.22549E-04   -0.17520E-03 11768   0.590E-02    0.139E-02
DAV:   2    -0.159450861198E+04   -0.40955E-05   -0.20262E-05  6256   0.784E-03    0.714E-03
DAV:   3    -0.159450861537E+04   -0.33895E-05   -0.85804E-06  6228   0.667E-03    0.536E-03
DAV:   4    -0.159450861851E+04   -0.31454E-05   -0.40530E-06  6200   0.476E-03    0.211E-03
DAV:   5    -0.159450862162E+04   -0.31047E-05   -0.22046E-06  6144   0.250E-03
  20 F= -.15945086E+04 E0= -.15944961E+04  d E =0.279276E-05
       N       E                     dE             d eps       ncg     rms          rms(c)
DAV:   1    -0.159450872619E+04   -0.10768E-03   -0.11699E-02 11744   0.139E-01    0.127E-02
DAV:   2    -0.159450872929E+04   -0.30961E-05   -0.83772E-05 13888   0.122E-02    0.970E-03
DAV:   3    -0.159450872687E+04    0.24194E-05   -0.98969E-06  6316   0.535E-03    0.551E-03
DAV:   4    -0.159450872528E+04    0.15853E-05   -0.52121E-06  6272   0.485E-03    0.205E-03
DAV:   5    -0.159450872500E+04    0.28647E-06   -0.18811E-06  6118   0.326E-03
  21 F= -.15945087E+04 E0= -.15944962E+04  d E =-.103383E-03
       N       E                     dE             d eps       ncg     rms          rms(c)
DAV:   1    -0.159450892185E+04   -0.19657E-03   -0.81039E-02 11712   0.367E-01    0.342E-02
DAV:   2    -0.159450896771E+04   -0.45857E-04   -0.66971E-04 17160   0.324E-02    0.260E-02
DAV:   3    -0.159450895739E+04    0.10313E-04   -0.61123E-05 12080   0.114E-02    0.106E-02
DAV:   4    -0.159450895844E+04   -0.10441E-05   -0.18997E-05  8160   0.914E-03    0.481E-03
DAV:   5    -0.159450895690E+04    0.15428E-05   -0.58594E-06  6652   0.636E-03
  22 F= -.15945090E+04 E0= -.15944964E+04  d E =-.231898E-03
       N       E                     dE             d eps       ncg     rms          rms(c)
DAV:   1    -0.159450886524E+04    0.93196E-04   -0.23617E-02 11732   0.199E-01    0.222E-02
DAV:   2    -0.159450885501E+04    0.10229E-04   -0.18840E-04 16680   0.182E-02    0.152E-02
DAV:   3    -0.159450884464E+04    0.10376E-04   -0.18131E-05  7628   0.772E-03    0.998E-03
DAV:   4    -0.159450883582E+04    0.88141E-05   -0.10742E-05  6840   0.766E-03    0.449E-03
DAV:   5    -0.159450883195E+04    0.38691E-05   -0.50007E-06  6128   0.497E-03
  23 F= -.15945088E+04 E0= -.15944963E+04  d E =0.124941E-03
       N       E                     dE             d eps       ncg     rms          rms(c)
DAV:   1    -0.159450893638E+04   -0.10056E-03   -0.18878E-02 11736   0.177E-01    0.166E-02
DAV:   2    -0.159450894660E+04   -0.10219E-04   -0.14169E-04 16312   0.154E-02    0.126E-02
DAV:   3    -0.159450894553E+04    0.10674E-05   -0.11066E-05  6892   0.619E-03    0.714E-03
DAV:   4    -0.159450894584E+04   -0.31348E-06   -0.79341E-06  6480   0.625E-03    0.212E-03
DAV:   5    -0.159450894553E+04    0.31840E-06   -0.20000E-06  6104   0.345E-03
  24 F= -.15945089E+04 E0= -.15944964E+04  d E =-.113572E-03
       N       E                     dE             d eps       ncg     rms          rms(c)
DAV:   1    -0.159450905599E+04   -0.11015E-03   -0.34566E-02 11724   0.239E-01    0.221E-02
DAV:   2    -0.159450907134E+04   -0.15348E-04   -0.28827E-04 17168   0.213E-02    0.169E-02
DAV:   3    -0.159450906472E+04    0.66238E-05   -0.18274E-05  7770   0.761E-03    0.967E-03
DAV:   4    -0.159450906086E+04    0.38610E-05   -0.12958E-05  7280   0.799E-03    0.329E-03
DAV:   5    -0.159450906015E+04    0.70672E-06   -0.40126E-06  6262   0.520E-03
  25 F= -.15945091E+04 E0= -.15944965E+04  d E =-.114622E-03
       N       E                     dE             d eps       ncg     rms          rms(c)
DAV:   1    -0.159450902745E+04    0.33407E-04   -0.24523E-03 11744   0.668E-02    0.123E-02
DAV:   2    -0.159450903166E+04   -0.42140E-05   -0.19991E-05  6208   0.756E-03    0.660E-03
DAV:   3    -0.159450903482E+04   -0.31542E-05   -0.77288E-06  6100   0.574E-03    0.468E-03
DAV:   4    -0.159450903734E+04   -0.25230E-05   -0.34654E-06  6080   0.424E-03    0.216E-03
DAV:   5    -0.159450903989E+04   -0.25556E-05   -0.19870E-06  6032   0.246E-03
  26 F= -.15945090E+04 E0= -.15944965E+04  d E =0.202538E-04
       N       E                     dE             d eps       ncg     rms          rms(c)
DAV:   1    -0.159450910533E+04   -0.67990E-04   -0.81020E-03 11738   0.117E-01    0.123E-02
DAV:   2    -0.159450910052E+04    0.48124E-05   -0.58010E-05 12088   0.106E-02    0.848E-03
DAV:   3    -0.159450909712E+04    0.34005E-05   -0.92167E-06  6274   0.537E-03    0.579E-03
DAV:   4    -0.159450909358E+04    0.35370E-05   -0.39734E-06  6152   0.441E-03    0.283E-03
DAV:   5    -0.159450909152E+04    0.20626E-05   -0.22366E-06  6030   0.313E-03
  27 F= -.15945091E+04 E0= -.15944966E+04  d E =-.516218E-04
       N       E                     dE             d eps       ncg     rms          rms(c)
DAV:   1    -0.159450912409E+04   -0.30511E-04   -0.45267E-03 11736   0.866E-02    0.810E-03
DAV:   2    -0.159450912636E+04   -0.22699E-05   -0.26478E-05  8528   0.776E-03    0.597E-03
DAV:   3    -0.159450912714E+04   -0.77662E-06   -0.93851E-06  6126   0.454E-03    0.264E-03
DAV:   4    -0.159450912783E+04   -0.69725E-06   -0.48551E-06  6032   0.390E-03    0.975E-04
DAV:   5    -0.159450912792E+04   -0.85965E-07   -0.25449E-06  6032   0.273E-03
  28 F= -.15945091E+04 E0= -.15944966E+04  d E =-.364029E-04
       N       E                     dE             d eps       ncg     rms          rms(c)
DAV:   1    -0.159450917145E+04   -0.43622E-04   -0.86205E-03 11732   0.120E-01    0.135E-02
DAV:   2    -0.159450916657E+04    0.48800E-05   -0.86107E-05 14752   0.118E-02    0.928E-03
DAV:   3    -0.159450916251E+04    0.40685E-05   -0.99091E-06  6628   0.562E-03    0.651E-03
DAV:   4    -0.159450915828E+04    0.42304E-05   -0.46440E-06  6128   0.479E-03    0.335E-03
DAV:   5    -0.159450915541E+04    0.28627E-05   -0.25276E-06  6030   0.335E-03
  29 F= -.15945092E+04 E0= -.15944966E+04  d E =-.274940E-04
       N       E                     dE             d eps       ncg     rms          rms(c)
DAV:   1    -0.159450914638E+04    0.11895E-04   -0.10046E-03 11740   0.427E-02    0.765E-03
DAV:   2    -0.159450915045E+04   -0.40708E-05   -0.77565E-06  5960   0.473E-03    0.413E-03
DAV:   3    -0.159450915274E+04   -0.22911E-05   -0.29195E-06  5944   0.352E-03    0.294E-03
DAV:   4    -0.159450915461E+04   -0.18684E-05   -0.13582E-06  5960   0.263E-03    0.128E-03
DAV:   5    -0.159450915622E+04   -0.16084E-05   -0.74958E-07  5960   0.149E-03
  30 F= -.15945092E+04 E0= -.15944966E+04  d E =-.806670E-06
       N       E                     dE             d eps       ncg     rms          rms(c)
DAV:   1    -0.159450917655E+04   -0.21938E-04   -0.22767E-03 11740   0.615E-02    0.546E-03
DAV:   2    -0.159450917719E+04   -0.63962E-06   -0.10857E-05  5960   0.531E-03    0.402E-03
DAV:   3    -0.159450917724E+04   -0.49354E-07   -0.35249E-06  5956   0.289E-03    0.199E-03
DAV:   4    -0.159450917736E+04   -0.12023E-06   -0.19027E-06  5960   0.248E-03    0.689E-04
DAV:   5    -0.159450917738E+04   -0.20795E-07   -0.92161E-07  5958   0.165E-03
  31 F= -.15945092E+04 E0= -.15944967E+04  d E =-.211600E-04
       N       E                     dE             d eps       ncg     rms          rms(c)
DAV:   1    -0.159450923662E+04   -0.59263E-04   -0.36734E-02 11712   0.247E-01    0.231E-02
DAV:   2    -0.159450925090E+04   -0.14280E-04   -0.30956E-04 17152   0.221E-02    0.176E-02
DAV:   3    -0.159450924197E+04    0.89272E-05   -0.20644E-05  7744   0.765E-03    0.914E-03
DAV:   4    -0.159450923823E+04    0.37428E-05   -0.12726E-05  7328   0.795E-03    0.376E-03
DAV:   5    -0.159450923712E+04    0.11110E-05   -0.41842E-06  6326   0.541E-03
  32 F= -.15945092E+04 E0= -.15944968E+04  d E =-.597408E-04
       N       E                     dE             d eps       ncg     rms          rms(c)
DAV:   1    -0.159450920335E+04    0.34886E-04   -0.11135E-02 11720   0.136E-01    0.142E-02
DAV:   2    -0.159450921012E+04   -0.67747E-05   -0.79284E-05 13592   0.121E-02    0.102E-02
DAV:   3    -0.159450921086E+04   -0.73885E-06   -0.10458E-05  6040   0.569E-03    0.639E-03
DAV:   4    -0.159450921226E+04   -0.13998E-05   -0.52646E-06  6032   0.510E-03    0.243E-03
DAV:   5    -0.159450921309E+04   -0.82647E-06   -0.22653E-06  5984   0.328E-03
  33 F= -.15945092E+04 E0= -.15944967E+04  d E =0.240351E-04
       N       E                     dE             d eps       ncg     rms          rms(c)
DAV:   1    -0.159450923812E+04   -0.25860E-04   -0.57792E-03 11728   0.979E-02    0.917E-03
DAV:   2    -0.159450923773E+04    0.39283E-06   -0.27873E-05  7688   0.855E-03    0.667E-03
DAV:   3    -0.159450923623E+04    0.14977E-05   -0.89927E-06  6026   0.470E-03    0.276E-03
DAV:   4    -0.159450923574E+04    0.48983E-06   -0.43217E-06  5984   0.393E-03    0.112E-03
DAV:   5    -0.159450923590E+04   -0.16323E-06   -0.21133E-06  5976   0.260E-03
  34 F= -.15945092E+04 E0= -.15944967E+04  d E =-.228160E-04
       N       E                     dE             d eps       ncg     rms          rms(c)
DAV:   1    -0.159450926062E+04   -0.24883E-04   -0.15192E-02 11716   0.159E-01    0.146E-02
DAV:   2    -0.159450926981E+04   -0.91915E-05   -0.13472E-04 16376   0.144E-02    0.113E-02
DAV:   3    -0.159450926714E+04    0.26686E-05   -0.10526E-05  6514   0.527E-03    0.382E-03
DAV:   4    -0.159450926730E+04   -0.15326E-06   -0.39605E-06  6192   0.458E-03    0.220E-03
DAV:   5    -0.159450926700E+04    0.30050E-06   -0.12462E-06  6028   0.292E-03
  35 F= -.15945093E+04 E0= -.15944968E+04  d E =-.310954E-04
       N       E                     dE             d eps       ncg     rms          rms(c)
DAV:   1    -0.159450926360E+04    0.36952E-05   -0.13395E-03 11732   0.481E-02    0.659E-03
DAV:   2    -0.159450925795E+04    0.56521E-05   -0.78263E-06  5924   0.464E-03    0.395E-03
DAV:   3    -0.159450925559E+04    0.23595E-05   -0.27740E-06  5916   0.307E-03    0.259E-03
DAV:   4    -0.159450925353E+04    0.20579E-05   -0.13321E-06  5924   0.246E-03    0.119E-03
DAV:   5    -0.159450925248E+04    0.10536E-05   -0.74152E-07  5924   0.157E-03
  36 F= -.15945093E+04 E0= -.15944968E+04  d E =0.145179E-04
       N       E                     dE             d eps       ncg     rms          rms(c)
DAV:   1    -0.159450926186E+04   -0.83291E-05   -0.22000E-03 11732   0.607E-02    0.624E-03
DAV:   2    -0.159450926458E+04   -0.27202E-05   -0.10871E-05  5924   0.536E-03    0.424E-03
DAV:   3    -0.159450926591E+04   -0.13314E-05   -0.34757E-06  5918   0.306E-03    0.269E-03
DAV:   4    -0.159450926722E+04   -0.13064E-05   -0.18161E-06  5924   0.258E-03    0.990E-04
DAV:   5    -0.159450926771E+04   -0.49407E-06   -0.94499E-07  5924   0.173E-03
  37 F= -.15945093E+04 E0= -.15944968E+04  d E =-.152348E-04
       N       E                     dE             d eps       ncg     rms          rms(c)
DAV:   1    -0.159450927142E+04   -0.42023E-05   -0.52527E-04 11736   0.294E-02    0.292E-03
DAV:   2    -0.159450927119E+04    0.23315E-06   -0.35287E-06  5924   0.294E-03    0.213E-03
DAV:   3    -0.159450927099E+04    0.19879E-06   -0.14140E-06  5916   0.185E-03    0.120E-03
DAV:   4    -0.159450927076E+04    0.23381E-06   -0.80682E-07  5924   0.154E-03    0.402E-04
DAV:   5    -0.159450927077E+04   -0.89672E-08   -0.44629E-07  5924   0.115E-03
  38 F= -.15945093E+04 E0= -.15944968E+04  d E =-.305143E-05
       N       E                     dE             d eps       ncg     rms          rms(c)
DAV:   1    -0.159450926918E+04    0.15724E-05   -0.16088E-05  5954   0.617E-03    0.152E-03
DAV:   2    -0.159450927057E+04   -0.13860E-05   -0.94180E-07  5930   0.207E-03    0.755E-04
DAV:   3    -0.159450927116E+04   -0.58626E-06   -0.16903E-07  5930   0.868E-04    0.636E-04
DAV:   4    -0.159450927173E+04   -0.57322E-06   -0.83153E-08  5926   0.665E-04    0.279E-04
DAV:   5    -0.159450927218E+04   -0.44833E-06   -0.50179E-08  5924   0.332E-04
  39 F= -.15945093E+04 E0= -.15944968E+04  d E =-.141244E-05
       N       E                     dE             d eps       ncg     rms          rms(c)
DAV:   1    -0.159450927554E+04   -0.38123E-05   -0.32992E-04 11628   0.234E-02    0.222E-03
DAV:   2    -0.159450927512E+04    0.42194E-06   -0.18193E-06  5924   0.212E-03    0.160E-03
DAV:   3    -0.159450927480E+04    0.31876E-06   -0.64802E-07  5914   0.120E-03    0.847E-04
DAV:   4    -0.159450927453E+04    0.26722E-06   -0.34602E-07  5912   0.101E-03    0.306E-04
DAV:   5    -0.159450927452E+04    0.17829E-07   -0.18524E-07  5906   0.730E-04
  40 F= -.15945093E+04 E0= -.15944968E+04  d E =-.233824E-05
       N       E                     dE             d eps       ncg     rms          rms(c)
DAV:   1    -0.159450927873E+04   -0.41964E-05   -0.12458E-03 11728   0.454E-02    0.423E-03
DAV:   2    -0.159450927958E+04   -0.84573E-06   -0.68398E-06  5984   0.413E-03    0.310E-03
DAV:   3    -0.159450928005E+04   -0.47829E-06   -0.26792E-06  5910   0.240E-03    0.991E-04
DAV:   4    -0.159450928036E+04   -0.30528E-06   -0.12986E-06  5912   0.196E-03    0.565E-04
DAV:   5    -0.159450928035E+04    0.95697E-08   -0.70768E-07  5910   0.146E-03
  41 F= -.15945093E+04 E0= -.15944968E+04  d E =-.583398E-05
       N       E                     dE             d eps       ncg     rms          rms(c)
DAV:   1    -0.159450928128E+04   -0.92044E-06   -0.14061E-04 11488   0.161E-02    0.287E-03
DAV:   2    -0.159450927861E+04    0.26679E-05   -0.10433E-06  5912   0.177E-03    0.154E-03
DAV:   3    -0.159450927759E+04    0.10226E-05   -0.39156E-07  5908   0.130E-03    0.107E-03
DAV:   4    -0.159450927669E+04    0.89966E-06   -0.16250E-07  5906   0.953E-04    0.497E-04
DAV:   5    -0.159450927607E+04    0.62100E-06   -0.91035E-08  5906   0.539E-04
  42 F= -.15945093E+04 E0= -.15944968E+04  d E =0.428116E-05
       N       E                     dE             d eps       ncg     rms          rms(c)
DAV:   1    -0.159450927795E+04   -0.12605E-05   -0.37785E-04 11648   0.251E-02    0.253E-03
DAV:   2    -0.159450927904E+04   -0.10918E-05   -0.20019E-06  5906   0.228E-03    0.174E-03
DAV:   3    -0.159450927959E+04   -0.54824E-06   -0.67983E-07  5904   0.133E-03    0.109E-03
DAV:   4    -0.159450928015E+04   -0.56053E-06   -0.36306E-07  5906   0.112E-03    0.393E-04
DAV:   5    -0.159450928032E+04   -0.16637E-06   -0.19451E-07  5906   0.769E-04
  43 F= -.15945093E+04 E0= -.15944968E+04  d E =-.424852E-05
       N       E                     dE             d eps       ncg     rms          rms(c)
DAV:   1    -0.159450928247E+04   -0.23195E-05   -0.33154E-04 11628   0.234E-02    0.222E-03
DAV:   2    -0.159450928242E+04    0.50586E-07   -0.20176E-06  5900   0.224E-03    0.163E-03
DAV:   3    -0.159450928230E+04    0.12444E-06   -0.79177E-07  5898   0.132E-03    0.610E-04
DAV:   4    -0.159450928226E+04    0.40126E-07   -0.40745E-07  5900   0.108E-03    0.310E-04
DAV:   5    -0.159450928227E+04   -0.19229E-07   -0.22468E-07  5898   0.818E-04
  44 F= -.15945093E+04 E0= -.15944968E+04  d E =-.195723E-05
       N       E                     dE             d eps       ncg     rms          rms(c)
DAV:   1    -0.159450928262E+04   -0.36303E-06   -0.61120E-04 11728   0.320E-02    0.359E-03
DAV:   2    -0.159450928455E+04   -0.19332E-05   -0.38769E-06  5906   0.315E-03    0.236E-03
DAV:   3    -0.159450928549E+04   -0.94171E-06   -0.14496E-06  5904   0.201E-03    0.150E-03
DAV:   4    -0.159450928638E+04   -0.89155E-06   -0.77300E-07  5906   0.165E-03    0.679E-04
DAV:   5    -0.159450928681E+04   -0.42382E-06   -0.45024E-07  5904   0.119E-03
  45 F= -.15945093E+04 E0= -.15944968E+04  d E =-.453411E-05
       N       E                     dE             d eps       ncg     rms          rms(c)
DAV:   1    -0.159450928824E+04   -0.18576E-05   -0.90859E-05 11376   0.128E-02    0.219E-03
DAV:   2    -0.159450928630E+04    0.19375E-05   -0.71845E-07  5902   0.144E-03    0.118E-03
DAV:   3    -0.159450928558E+04    0.72856E-06   -0.24736E-07  5904   0.101E-03    0.848E-04
DAV:   4    -0.159450928489E+04    0.68155E-06   -0.99653E-08  5906   0.732E-04    0.385E-04
DAV:   5    -0.159450928440E+04    0.49033E-06   -0.53532E-08  5906   0.408E-04
  46 F= -.15945093E+04 E0= -.15944968E+04  d E =0.240417E-05
       N       E                     dE             d eps       ncg     rms          rms(c)
DAV:   1    -0.159450928554E+04   -0.64320E-06   -0.13442E-04 11484   0.149E-02    0.132E-03
DAV:   2    -0.159450928548E+04    0.56912E-07   -0.73255E-07  5894   0.137E-03    0.970E-04
DAV:   3    -0.159450928543E+04    0.46027E-07   -0.23010E-07  5894   0.744E-04    0.550E-04
DAV:   4    -0.159450928538E+04    0.55264E-07   -0.13011E-07  5894   0.642E-04    0.152E-04
DAV:   5    -0.159450928539E+04   -0.14336E-07   -0.63732E-08  5894   0.432E-04
  47 F= -.15945093E+04 E0= -.15944968E+04  d E =-.989665E-06
       N       E                     dE             d eps       ncg     rms          rms(c)
DAV:   1    -0.159450928646E+04   -0.10830E-05   -0.12233E-03 11724   0.451E-02    0.437E-03
DAV:   2    -0.159450928803E+04   -0.15669E-05   -0.65880E-06  5954   0.408E-03    0.311E-03
DAV:   3    -0.159450928899E+04   -0.96343E-06   -0.24106E-06  5950   0.235E-03    0.147E-03
DAV:   4    -0.159450928968E+04   -0.68618E-06   -0.12406E-06  5930   0.200E-03    0.547E-04
DAV:   5    -0.159450928973E+04   -0.51745E-07   -0.66001E-07  5906   0.143E-03
  48 F= -.15945093E+04 E0= -.15944968E+04  d E =-.433686E-05
