       N       E                     dE             d eps       ncg     rms          rms(c)
DAV:   1     0.230447162546E+04    0.23045E+04   -0.29612E+05 11864   0.143E+03
DAV:   2    -0.119994785562E+04   -0.35044E+04   -0.33603E+04 13684   0.308E+02
DAV:   3    -0.164539814093E+04   -0.44545E+03   -0.41436E+03 18160   0.817E+01
DAV:   4    -0.167035444832E+04   -0.24956E+02   -0.23394E+02 16528   0.176E+01
DAV:   5    -0.167144160717E+04   -0.10872E+01   -0.10687E+01 18264   0.413E+00    0.420E+01
DAV:   6    -0.162545529460E+04    0.45986E+02   -0.12801E+02 17920   0.151E+01    0.233E+01
DAV:   7    -0.161489699708E+04    0.10558E+02   -0.91564E+01 18320   0.154E+01    0.174E+01
DAV:   8    -0.160222610335E+04    0.12671E+02   -0.59009E+01 17568   0.123E+01    0.845E+00
DAV:   9    -0.159878757177E+04    0.34385E+01   -0.23629E+01 17264   0.755E+00    0.265E+00
DAV:  10    -0.159876786720E+04    0.19705E-01   -0.35674E+00 15440   0.278E+00    0.169E+00
DAV:  11    -0.159875208787E+04    0.15779E-01   -0.59402E-01 16192   0.103E+00    0.107E+00
DAV:  12    -0.159873555613E+04    0.16532E-01   -0.18500E-01 14888   0.711E-01    0.634E-01
DAV:  13    -0.159872047259E+04    0.15084E-01   -0.55193E-02 15416   0.432E-01    0.327E-01
DAV:  14    -0.159871689063E+04    0.35820E-02   -0.18525E-02 14360   0.187E-01    0.116E-01
DAV:  15    -0.159871669145E+04    0.19918E-03   -0.36780E-03 16304   0.967E-02    0.665E-02
DAV:  16    -0.159871655736E+04    0.13409E-03   -0.10739E-03 15160   0.568E-02    0.361E-02
DAV:  17    -0.159871653025E+04    0.27114E-04   -0.30351E-04 14568   0.288E-02    0.163E-02
DAV:  18    -0.159871652237E+04    0.78807E-05   -0.81910E-05 12792   0.146E-02
   1 F= -.15987165E+04 E0= -.15987068E+04  d E =-.159872E+04
       N       E                     dE             d eps       ncg     rms          rms(c)
DAV:   1    -0.160215149255E+04   -0.34350E+01   -0.10770E+03 11816   0.487E+01    0.172E+01
DAV:   2    -0.158976391584E+04    0.12388E+02   -0.57486E+01 17840   0.991E+00    0.895E+00
DAV:   3    -0.158689380503E+04    0.28701E+01   -0.27987E+01 19344   0.726E+00    0.637E+00
DAV:   4    -0.158530044390E+04    0.15934E+01   -0.90065E+00 19456   0.484E+00    0.429E+00
DAV:   5    -0.158434552375E+04    0.95492E+00   -0.55733E+00 17344   0.340E+00    0.137E+00
DAV:   6    -0.158430858907E+04    0.36935E-01   -0.96381E-01 16096   0.153E+00    0.894E-01
DAV:   7    -0.158429819308E+04    0.10396E-01   -0.20615E-01 15976   0.695E-01    0.602E-01
DAV:   8    -0.158429720888E+04    0.98419E-03   -0.69930E-02 17056   0.319E-01    0.289E-01
DAV:   9    -0.158430147471E+04   -0.42658E-02   -0.31047E-02 17152   0.201E-01    0.197E-01
DAV:  10    -0.158430057702E+04    0.89769E-03   -0.71201E-03 17312   0.138E-01    0.105E-01
DAV:  11    -0.158430029324E+04    0.28378E-03   -0.27675E-03 18032   0.735E-02    0.542E-02
DAV:  12    -0.158430041040E+04   -0.11716E-03   -0.15105E-03 17216   0.483E-02    0.384E-02
DAV:  13    -0.158430045239E+04   -0.41991E-04   -0.31866E-04 16256   0.233E-02    0.134E-02
DAV:  14    -0.158430045933E+04   -0.69349E-05   -0.49081E-05 10480   0.112E-02
   2 F= -.15843005E+04 E0= -.15843161E+04  d E =0.144161E+02
       N       E                     dE             d eps       ncg     rms          rms(c)
DAV:   1    -0.161157753018E+04   -0.27277E+02   -0.46714E+02 11816   0.356E+01    0.122E+01
DAV:   2    -0.160484173732E+04    0.67358E+01   -0.16733E+01 15760   0.619E+00    0.564E+00
DAV:   3    -0.160382353933E+04    0.10182E+01   -0.77844E+00 16840   0.422E+00    0.415E+00
DAV:   4    -0.160293610760E+04    0.88743E+00   -0.35165E+00 17792   0.348E+00    0.215E+00
DAV:   5    -0.160269993498E+04    0.23617E+00   -0.17660E+00 16328   0.211E+00    0.676E-01
DAV:   6    -0.160269989930E+04    0.35683E-04   -0.27486E-01 14528   0.853E-01    0.467E-01
DAV:   7    -0.160270195224E+04   -0.20529E-02   -0.47141E-02 16000   0.318E-01    0.325E-01
DAV:   8    -0.160270547046E+04   -0.35182E-02   -0.21245E-02 15880   0.181E-01    0.139E-01
DAV:   9    -0.160270836803E+04   -0.28976E-02   -0.72455E-03 13736   0.116E-01    0.110E-01
DAV:  10    -0.160270806081E+04    0.30722E-03   -0.23614E-03 15800   0.712E-02    0.403E-02
DAV:  11    -0.160270822568E+04   -0.16487E-03   -0.83295E-04 17312   0.395E-02    0.352E-02
DAV:  12    -0.160270838492E+04   -0.15925E-03   -0.25157E-04 14672   0.242E-02    0.297E-02
DAV:  13    -0.160270838110E+04    0.38190E-05   -0.12517E-04 14688   0.136E-02    0.863E-03
DAV:  14    -0.160270837647E+04    0.46316E-05   -0.18752E-05  7288   0.647E-03
   3 F= -.16027084E+04 E0= -.16027008E+04  d E =-.184079E+02
       N       E                     dE             d eps       ncg     rms          rms(c)
DAV:   1    -0.160277132672E+04   -0.62946E-01   -0.10063E+01 11816   0.408E+00    0.500E-01
DAV:   2    -0.160278285404E+04   -0.11527E-01   -0.18719E-01 17608   0.615E-01    0.404E-01
DAV:   3    -0.160277554372E+04    0.73103E-02   -0.45303E-02 18640   0.359E-01    0.261E-01
DAV:   4    -0.160277417228E+04    0.13714E-02   -0.87049E-03 18264   0.144E-01    0.175E-01
DAV:   5    -0.160277345868E+04    0.71359E-03   -0.49539E-03 15704   0.107E-01    0.612E-02
DAV:   6    -0.160277337536E+04    0.83327E-04   -0.14720E-03 16584   0.678E-02    0.360E-02
DAV:   7    -0.160277332710E+04    0.48258E-04   -0.36419E-04 16552   0.321E-02    0.210E-02
DAV:   8    -0.160277331427E+04    0.12832E-04   -0.82326E-05 13424   0.130E-02    0.124E-02
DAV:   9    -0.160277331008E+04    0.41870E-05   -0.28742E-05  7680   0.790E-03
   4 F= -.16027733E+04 E0= -.16027652E+04  d E =-.649336E-01
       N       E                     dE             d eps       ncg     rms          rms(c)
DAV:   1    -0.160278905633E+04   -0.15742E-01   -0.29892E+00 11816   0.223E+00    0.265E-01
DAV:   2    -0.160279379711E+04   -0.47408E-02   -0.53346E-02 17552   0.378E-01    0.265E-01
DAV:   3    -0.160278919930E+04    0.45978E-02   -0.18367E-02 17952   0.235E-01    0.137E-01
DAV:   4    -0.160278882526E+04    0.37404E-03   -0.26211E-03 17216   0.767E-02    0.911E-02
DAV:   5    -0.160278861879E+04    0.20648E-03   -0.14872E-03 15656   0.618E-02    0.359E-02
DAV:   6    -0.160278857382E+04    0.44966E-04   -0.49491E-04 16056   0.402E-02    0.210E-02
DAV:   7    -0.160278855774E+04    0.16082E-04   -0.10649E-04 14408   0.171E-02    0.124E-02
DAV:   8    -0.160278855421E+04    0.35271E-05   -0.24264E-05  7696   0.748E-03
   5 F= -.16027886E+04 E0= -.16027802E+04  d E =-.152441E-01
       N       E                     dE             d eps       ncg     rms          rms(c)
DAV:   1    -0.160279203610E+04   -0.34784E-02   -0.86003E-01 11890   0.119E+00    0.134E-01
DAV:   2    -0.160279356600E+04   -0.15299E-02   -0.13794E-02 17456   0.203E-01    0.147E-01
DAV:   3    -0.160279207498E+04    0.14910E-02   -0.52340E-03 17754   0.128E-01    0.722E-02
DAV:   4    -0.160279197835E+04    0.96627E-04   -0.74486E-04 17216   0.405E-02    0.431E-02
DAV:   5    -0.160279193134E+04    0.47006E-04   -0.39352E-04 15672   0.331E-02    0.168E-02
DAV:   6    -0.160279191906E+04    0.12286E-04   -0.11718E-04 14856   0.200E-02    0.981E-03
DAV:   7    -0.160279191549E+04    0.35644E-05   -0.20281E-05  7496   0.791E-03
   6 F= -.16027919E+04 E0= -.16027835E+04  d E =-.336128E-02
       N       E                     dE             d eps       ncg     rms          rms(c)
DAV:   1    -0.160279287619E+04   -0.95714E-03   -0.25297E-01 11900   0.646E-01    0.647E-02
DAV:   2    -0.160279315148E+04   -0.27528E-03   -0.27918E-03 17424   0.859E-02    0.636E-02
DAV:   3    -0.160279294851E+04    0.20297E-03   -0.85349E-04 18028   0.524E-02    0.393E-02
DAV:   4    -0.160279291133E+04    0.37184E-04   -0.18183E-04 14464   0.207E-02    0.125E-02
DAV:   5    -0.160279290825E+04    0.30794E-05   -0.55795E-05 12072   0.146E-02
   7 F= -.16027929E+04 E0= -.16027845E+04  d E =-.992754E-03
       N       E                     dE             d eps       ncg     rms          rms(c)
DAV:   1    -0.160279330030E+04   -0.38897E-03   -0.83999E-02 11972   0.373E-01    0.381E-02
DAV:   2    -0.160279332437E+04   -0.24070E-04   -0.79165E-04 17112   0.378E-02    0.288E-02
DAV:   3    -0.160279330514E+04    0.19222E-04   -0.11846E-04 15594   0.187E-02    0.221E-02
DAV:   4    -0.160279328200E+04    0.23141E-04   -0.45200E-05 10768   0.110E-02    0.985E-03
DAV:   5    -0.160279327318E+04    0.88205E-05   -0.16333E-05  7056   0.766E-03
   8 F= -.16027933E+04 E0= -.16027848E+04  d E =-.364936E-03
       N       E                     dE             d eps       ncg     rms          rms(c)
DAV:   1    -0.160279347490E+04   -0.19290E-03   -0.24921E-02 11984   0.205E-01    0.247E-02
DAV:   2    -0.160279349124E+04   -0.16342E-04   -0.23332E-04 17264   0.199E-02    0.161E-02
DAV:   3    -0.160279349276E+04   -0.15199E-05   -0.21685E-05  8376   0.917E-03    0.108E-02
DAV:   4    -0.160279349598E+04   -0.32210E-05   -0.11853E-05  7584   0.842E-03    0.480E-03
DAV:   5    -0.160279349949E+04   -0.35098E-05   -0.59278E-06  6496   0.503E-03
   9 F= -.16027935E+04 E0= -.16027850E+04  d E =-.226310E-03
       N       E                     dE             d eps       ncg     rms          rms(c)
DAV:   1    -0.160279361714E+04   -0.12116E-03   -0.11187E-02 12000   0.136E-01    0.141E-02
DAV:   2    -0.160279361797E+04   -0.83133E-06   -0.97602E-05 15152   0.131E-02    0.106E-02
DAV:   3    -0.160279361519E+04    0.27774E-05   -0.10683E-05  7176   0.648E-03    0.823E-03
DAV:   4    -0.160279360991E+04    0.52860E-05   -0.72900E-06  6472   0.471E-03    0.220E-03
DAV:   5    -0.160279360898E+04    0.93179E-06   -0.23725E-06  6464   0.321E-03
  10 F= -.16027936E+04 E0= -.16027852E+04  d E =-.109483E-03
       N       E                     dE             d eps       ncg     rms          rms(c)
DAV:   1    -0.160279370526E+04   -0.95347E-04   -0.11405E-02 11984   0.137E-01    0.146E-02
DAV:   2    -0.160279371598E+04   -0.10723E-04   -0.99649E-05 15584   0.133E-02    0.107E-02
DAV:   3    -0.160279371593E+04    0.43358E-07   -0.10809E-05  7552   0.659E-03    0.819E-03
DAV:   4    -0.160279371886E+04   -0.29267E-05   -0.69226E-06  6424   0.490E-03    0.239E-03
DAV:   5    -0.160279372031E+04   -0.14501E-05   -0.24697E-06  6328   0.328E-03
  11 F= -.16027937E+04 E0= -.16027853E+04  d E =-.111335E-03
       N       E                     dE             d eps       ncg     rms          rms(c)
DAV:   1    -0.160279376926E+04   -0.50398E-04   -0.16850E-03 12000   0.545E-02    0.937E-03
DAV:   2    -0.160279375921E+04    0.10046E-04   -0.14083E-05  6280   0.600E-03    0.502E-03
DAV:   3    -0.160279375457E+04    0.46432E-05   -0.53932E-06  6280   0.398E-03    0.266E-03
DAV:   4    -0.160279375203E+04    0.25460E-05   -0.25530E-06  6232   0.308E-03    0.147E-03
DAV:   5    -0.160279375079E+04    0.12367E-05   -0.13489E-06  6232   0.231E-03
  12 F= -.16027938E+04 E0= -.16027853E+04  d E =-.304768E-04
       N       E                     dE             d eps       ncg     rms          rms(c)
DAV:   1    -0.160279382064E+04   -0.68612E-04   -0.70528E-03 11984   0.108E-01    0.110E-02
DAV:   2    -0.160279382665E+04   -0.60133E-05   -0.57431E-05 12272   0.101E-02    0.822E-03
DAV:   3    -0.160279382740E+04   -0.74841E-06   -0.83894E-06  6632   0.532E-03    0.571E-03
DAV:   4    -0.160279382910E+04   -0.17043E-05   -0.44333E-06  6280   0.412E-03    0.123E-03
DAV:   5    -0.160279382946E+04   -0.35239E-06   -0.15981E-06  6184   0.254E-03
  13 F= -.16027938E+04 E0= -.16027854E+04  d E =-.786670E-04
       N       E                     dE             d eps       ncg     rms          rms(c)
DAV:   1    -0.160279389353E+04   -0.64426E-04   -0.60677E-03 11972   0.999E-02    0.103E-02
DAV:   2    -0.160279389132E+04    0.22075E-05   -0.46366E-05 10960   0.922E-03    0.735E-03
DAV:   3    -0.160279388836E+04    0.29653E-05   -0.89864E-06  6274   0.490E-03    0.392E-03
DAV:   4    -0.160279388609E+04    0.22658E-05   -0.37358E-06  6184   0.375E-03    0.153E-03
DAV:   5    -0.160279388572E+04    0.37051E-06   -0.17513E-06  6184   0.285E-03
  14 F= -.16027939E+04 E0= -.16027854E+04  d E =-.562643E-04
       N       E                     dE             d eps       ncg     rms          rms(c)
DAV:   1    -0.160279391669E+04   -0.30597E-04   -0.21870E-03 11984   0.606E-02    0.792E-03
DAV:   2    -0.160279392094E+04   -0.42545E-05   -0.15101E-05  6200   0.614E-03    0.490E-03
DAV:   3    -0.160279392318E+04   -0.22354E-05   -0.57669E-06  6184   0.418E-03    0.323E-03
DAV:   4    -0.160279392530E+04   -0.21198E-05   -0.29946E-06  6184   0.337E-03    0.135E-03
DAV:   5    -0.160279392645E+04   -0.11556E-05   -0.17158E-06  6184   0.228E-03
  15 F= -.16027939E+04 E0= -.16027855E+04  d E =-.407326E-04
       N       E                     dE             d eps       ncg     rms          rms(c)
DAV:   1    -0.160279396980E+04   -0.44499E-04   -0.30984E-03 11972   0.715E-02    0.805E-03
DAV:   2    -0.160279396624E+04    0.35587E-05   -0.19659E-05  8184   0.698E-03    0.540E-03
DAV:   3    -0.160279396412E+04    0.21156E-05   -0.73119E-06  6314   0.422E-03    0.302E-03
DAV:   4    -0.160279396253E+04    0.15927E-05   -0.38472E-06  6160   0.347E-03    0.139E-03
DAV:   5    -0.160279396209E+04    0.43413E-06   -0.21588E-06  6154   0.263E-03
  16 F= -.16027940E+04 E0= -.16027855E+04  d E =-.356417E-04
       N       E                     dE             d eps       ncg     rms          rms(c)
DAV:   1    -0.160279399802E+04   -0.35490E-04   -0.36469E-03 11972   0.773E-02    0.800E-03
DAV:   2    -0.160279400144E+04   -0.34193E-05   -0.23355E-05  7648   0.746E-03    0.567E-03
DAV:   3    -0.160279400311E+04   -0.16760E-05   -0.81668E-06  6240   0.451E-03    0.305E-03
DAV:   4    -0.160279400462E+04   -0.15031E-05   -0.43990E-06  6160   0.382E-03    0.923E-04
DAV:   5    -0.160279400488E+04   -0.26190E-06   -0.23742E-06  6160   0.270E-03
  17 F= -.16027940E+04 E0= -.16027856E+04  d E =-.427844E-04
       N       E                     dE             d eps       ncg     rms          rms(c)
DAV:   1    -0.160279403280E+04   -0.28179E-04   -0.16271E-03 11972   0.520E-02    0.652E-03
DAV:   2    -0.160279402875E+04    0.40442E-05   -0.12145E-05  6328   0.551E-03    0.411E-03
DAV:   3    -0.160279402687E+04    0.18827E-05   -0.48303E-06  6154   0.359E-03    0.248E-03
DAV:   4    -0.160279402535E+04    0.15230E-05   -0.25244E-06  6160   0.284E-03    0.126E-03
DAV:   5    -0.160279402463E+04    0.71231E-06   -0.14818E-06  6160   0.215E-03
  18 F= -.16027940E+04 E0= -.16027856E+04  d E =-.197547E-04
       N       E                     dE             d eps       ncg     rms          rms(c)
DAV:   1    -0.160279404640E+04   -0.21051E-04   -0.16892E-03 11972   0.527E-02    0.577E-03
DAV:   2    -0.160279404897E+04   -0.25780E-05   -0.10871E-05  6960   0.519E-03    0.396E-03
DAV:   3    -0.160279405055E+04   -0.15796E-05   -0.43079E-06  6160   0.322E-03    0.202E-03
DAV:   4    -0.160279405171E+04   -0.11530E-05   -0.22894E-06  6160   0.267E-03    0.809E-04
DAV:   5    -0.160279405199E+04   -0.28237E-06   -0.12869E-06  6160   0.197E-03
  19 F= -.16027941E+04 E0= -.16027856E+04  d E =-.273564E-04
       N       E                     dE             d eps       ncg     rms          rms(c)
DAV:   1    -0.160279408140E+04   -0.29691E-04   -0.28740E-03 11972   0.686E-02    0.693E-03
DAV:   2    -0.160279408012E+04    0.12776E-05   -0.17396E-05  7488   0.657E-03    0.493E-03
DAV:   3    -0.160279407882E+04    0.12962E-05   -0.64584E-06  6184   0.387E-03    0.239E-03
DAV:   4    -0.160279407802E+04    0.80577E-06   -0.34582E-06  6160   0.324E-03    0.950E-04
DAV:   5    -0.160279407806E+04   -0.41607E-07   -0.18987E-06  6160   0.247E-03
  20 F= -.16027941E+04 E0= -.16027856E+04  d E =-.260702E-04
       N       E                     dE             d eps       ncg     rms          rms(c)
DAV:   1    -0.160279409207E+04   -0.14049E-04   -0.12842E-03 11972   0.463E-02    0.590E-03
DAV:   2    -0.160279409538E+04   -0.33108E-05   -0.96454E-06  6400   0.491E-03    0.370E-03
DAV:   3    -0.160279409721E+04   -0.18340E-05   -0.38758E-06  6176   0.332E-03    0.228E-03
DAV:   4    -0.160279409870E+04   -0.14930E-05   -0.20505E-06  6160   0.266E-03    0.104E-03
DAV:   5    -0.160279409950E+04   -0.79231E-06   -0.12084E-06  6160   0.192E-03
  21 F= -.16027941E+04 E0= -.16027857E+04  d E =-.214375E-04
       N       E                     dE             d eps       ncg     rms          rms(c)
DAV:   1    -0.160279411639E+04   -0.17687E-04   -0.77768E-04 11972   0.360E-02    0.464E-03
DAV:   2    -0.160279411358E+04    0.28076E-05   -0.58606E-06  6190   0.384E-03    0.292E-03
DAV:   3    -0.160279411233E+04    0.12539E-05   -0.23728E-06  6166   0.258E-03    0.185E-03
DAV:   4    -0.160279411117E+04    0.11586E-05   -0.12553E-06  6142   0.204E-03    0.885E-04
DAV:   5    -0.160279411063E+04    0.54335E-06   -0.74225E-07  6142   0.150E-03
  22 F= -.16027941E+04 E0= -.16027857E+04  d E =-.111312E-04
       N       E                     dE             d eps       ncg     rms          rms(c)
DAV:   1    -0.160279412915E+04   -0.17982E-04   -0.19797E-03 11960   0.569E-02    0.554E-03
DAV:   2    -0.160279413040E+04   -0.12506E-05   -0.11416E-05  7136   0.533E-03    0.405E-03
DAV:   3    -0.160279413106E+04   -0.65392E-06   -0.45532E-06  6194   0.317E-03    0.130E-03
DAV:   4    -0.160279413152E+04   -0.46168E-06   -0.22403E-06  6160   0.259E-03    0.678E-04
DAV:   5    -0.160279413153E+04   -0.13682E-07   -0.12389E-06  6154   0.194E-03
  23 F= -.16027941E+04 E0= -.16027857E+04  d E =-.209051E-04
       N       E                     dE             d eps       ncg     rms          rms(c)
DAV:   1    -0.160279416147E+04   -0.29951E-04   -0.53855E-03 11936   0.942E-02    0.998E-03
DAV:   2    -0.160279415841E+04    0.30632E-05   -0.40614E-05 10312   0.900E-03    0.695E-03
DAV:   3    -0.160279415573E+04    0.26786E-05   -0.90998E-06  6362   0.492E-03    0.399E-03
DAV:   4    -0.160279415350E+04    0.22284E-05   -0.41603E-06  6160   0.390E-03    0.172E-03
DAV:   5    -0.160279415286E+04    0.64252E-06   -0.21790E-06  6154   0.289E-03
  24 F= -.16027942E+04 E0= -.16027857E+04  d E =-.213248E-04
       N       E                     dE             d eps       ncg     rms          rms(c)
DAV:   1    -0.160279414559E+04    0.79084E-05   -0.48110E-04 11972   0.296E-02    0.563E-03
DAV:   2    -0.160279414882E+04   -0.32227E-05   -0.37415E-06  6142   0.327E-03    0.290E-03
DAV:   3    -0.160279415082E+04   -0.20020E-05   -0.14020E-06  6142   0.226E-03    0.182E-03
DAV:   4    -0.160279415208E+04   -0.12680E-05   -0.55930E-07  6142   0.167E-03    0.879E-04
DAV:   5    -0.160279415313E+04   -0.10485E-05   -0.28407E-07  6142   0.101E-03
  25 F= -.16027942E+04 E0= -.16027857E+04  d E =-.275347E-06
       N       E                     dE             d eps       ncg     rms          rms(c)
DAV:   1    -0.160279416858E+04   -0.16491E-04   -0.18414E-03 11954   0.549E-02    0.506E-03
DAV:   2    -0.160279416886E+04   -0.28297E-06   -0.91159E-06  6142   0.483E-03    0.371E-03
DAV:   3    -0.160279416867E+04    0.19117E-06   -0.30984E-06  6130   0.266E-03    0.152E-03
DAV:   4    -0.160279416867E+04    0.72623E-09   -0.15641E-06  6142   0.227E-03    0.610E-04
DAV:   5    -0.160279416872E+04   -0.48125E-07   -0.79570E-07  6136   0.161E-03
  26 F= -.16027942E+04 E0= -.16027857E+04  d E =-.155816E-04
       N       E                     dE             d eps       ncg     rms          rms(c)
DAV:   1    -0.160279420940E+04   -0.40729E-04   -0.32822E-02 11852   0.232E-01    0.218E-02
DAV:   2    -0.160279422508E+04   -0.15679E-04   -0.27194E-04 17232   0.208E-02    0.167E-02
DAV:   3    -0.160279421761E+04    0.74692E-05   -0.20293E-05  7642   0.758E-03    0.671E-03
DAV:   4    -0.160279421654E+04    0.10702E-05   -0.96162E-06  7088   0.716E-03    0.313E-03
DAV:   5    -0.160279421602E+04    0.51413E-06   -0.27003E-06  6254   0.446E-03
  27 F= -.16027942E+04 E0= -.16027858E+04  d E =-.473070E-04
       N       E                     dE             d eps       ncg     rms          rms(c)
DAV:   1    -0.160279422615E+04   -0.96096E-05   -0.79779E-03 11912   0.114E-01    0.104E-02
DAV:   2    -0.160279423058E+04   -0.44385E-05   -0.64385E-05 13224   0.104E-02    0.811E-03
DAV:   3    -0.160279422979E+04    0.79208E-06   -0.84000E-06  6274   0.491E-03    0.416E-03
DAV:   4    -0.160279422975E+04    0.41238E-07   -0.37521E-06  6184   0.396E-03    0.159E-03
DAV:   5    -0.160279422967E+04    0.79240E-07   -0.13385E-06  6160   0.268E-03
  28 F= -.16027942E+04 E0= -.16027858E+04  d E =-.136497E-04
       N       E                     dE             d eps       ncg     rms          rms(c)
DAV:   1    -0.160279423328E+04   -0.35287E-05   -0.10655E-02 11888   0.132E-01    0.123E-02
DAV:   2    -0.160279423880E+04   -0.55158E-05   -0.89702E-05 15192   0.119E-02    0.948E-03
DAV:   3    -0.160279423688E+04    0.19134E-05   -0.83192E-06  6454   0.488E-03    0.453E-03
DAV:   4    -0.160279423641E+04    0.47188E-06   -0.40510E-06  6272   0.428E-03    0.182E-03
DAV:   5    -0.160279423628E+04    0.13095E-06   -0.12209E-06  6154   0.282E-03
  29 F= -.16027942E+04 E0= -.16027858E+04  d E =-.660751E-05
