       N       E                     dE             d eps       ncg     rms          rms(c)
DAV:   1     0.271975365231E+04    0.27198E+04   -0.31600E+05 12500   0.145E+03
DAV:   2    -0.118897257232E+04   -0.39087E+04   -0.37391E+04 14258   0.344E+02
DAV:   3    -0.170407685552E+04   -0.51510E+03   -0.49048E+03 19128   0.833E+01
DAV:   4    -0.172984293451E+04   -0.25766E+02   -0.25036E+02 17592   0.186E+01
DAV:   5    -0.173088189091E+04   -0.10390E+01   -0.10226E+01 19560   0.379E+00    0.466E+01
DAV:   6    -0.167071824782E+04    0.60164E+02   -0.11854E+02 18008   0.143E+01    0.240E+01
DAV:   7    -0.165339295465E+04    0.17325E+02   -0.72160E+01 17048   0.136E+01    0.124E+01
DAV:   8    -0.164599071176E+04    0.74022E+01   -0.31389E+01 16832   0.110E+01    0.357E+00
DAV:   9    -0.164571011729E+04    0.28059E+00   -0.87793E+00 17160   0.491E+00    0.183E+00
DAV:  10    -0.164571915786E+04   -0.90406E-02   -0.13097E+00 16440   0.161E+00    0.129E+00
DAV:  11    -0.164568181819E+04    0.37340E-01   -0.33806E-01 16016   0.790E-01    0.572E-01
DAV:  12    -0.164567164006E+04    0.10178E-01   -0.46942E-02 16720   0.337E-01    0.224E-01
DAV:  13    -0.164567074977E+04    0.89029E-03   -0.11024E-02 15656   0.149E-01    0.749E-02
DAV:  14    -0.164567081528E+04   -0.65510E-04   -0.23627E-03 16800   0.734E-02    0.362E-02
DAV:  15    -0.164567080752E+04    0.77645E-05   -0.40791E-04 16120   0.368E-02    0.181E-02
DAV:  16    -0.164567079042E+04    0.17099E-04   -0.10184E-04 15368   0.176E-02    0.987E-03
DAV:  17    -0.164567078014E+04    0.10285E-04   -0.28873E-05  9208   0.940E-03    0.458E-03
DAV:  18    -0.164567077319E+04    0.69449E-05   -0.11568E-05  8232   0.541E-03
   1 F= -.16456708E+04 E0= -.16456710E+04  d E =-.164567E+04
       N       E                     dE             d eps       ncg     rms          rms(c)
DAV:   1    -0.164616299228E+04   -0.49221E+00   -0.13573E+02 12460   0.146E+01    0.232E+00
DAV:   2    -0.164612037192E+04    0.42620E-01   -0.25868E+00 17216   0.227E+00    0.130E+00
DAV:   3    -0.164607892480E+04    0.41447E-01   -0.39380E-01 16792   0.998E-01    0.883E-01
DAV:   4    -0.164605759358E+04    0.21331E-01   -0.10510E-01 16736   0.620E-01    0.401E-01
DAV:   5    -0.164605305845E+04    0.45351E-02   -0.44980E-02 15776   0.389E-01    0.149E-01
DAV:   6    -0.164605321374E+04   -0.15529E-03   -0.92058E-03 16088   0.152E-01    0.105E-01
DAV:   7    -0.164605312857E+04    0.85169E-04   -0.20232E-03 15992   0.606E-02    0.554E-02
DAV:   8    -0.164605316952E+04   -0.40950E-04   -0.55783E-04 15584   0.358E-02    0.227E-02
DAV:   9    -0.164605314669E+04    0.22837E-04   -0.10902E-04 15432   0.201E-02    0.119E-02
DAV:  10    -0.164605314091E+04    0.57757E-05   -0.54831E-05 12304   0.983E-03
   2 F= -.16460531E+04 E0= -.16460586E+04  d E =-.382368E+00
       N       E                     dE             d eps       ncg     rms          rms(c)
DAV:   1    -0.164629207327E+04   -0.23893E+00   -0.13338E+01 12470   0.567E+00    0.188E+00
DAV:   2    -0.164612638354E+04    0.16569E+00   -0.25305E-01 13696   0.741E-01    0.909E-01
DAV:   3    -0.164608230573E+04    0.44078E-01   -0.11461E-01 14558   0.516E-01    0.278E-01
DAV:   4    -0.164607888957E+04    0.34162E-02   -0.26142E-02 15792   0.297E-01    0.920E-02
DAV:   5    -0.164607876593E+04    0.12363E-03   -0.62965E-03 15702   0.153E-01    0.498E-02
DAV:   6    -0.164607899586E+04   -0.22993E-03   -0.13550E-03 17056   0.521E-02    0.337E-02
DAV:   7    -0.164607909912E+04   -0.10326E-03   -0.21346E-04 15768   0.210E-02    0.183E-02
DAV:   8    -0.164607915641E+04   -0.57291E-04   -0.64686E-05 13200   0.118E-02    0.807E-03
DAV:   9    -0.164607917588E+04   -0.19470E-04   -0.20625E-05  8280   0.741E-03    0.334E-03
DAV:  10    -0.164607918030E+04   -0.44166E-05   -0.77821E-06  7448   0.461E-03
   3 F= -.16460792E+04 E0= -.16460797E+04  d E =-.260394E-01
       N       E                     dE             d eps       ncg     rms          rms(c)
DAV:   1    -0.164626815171E+04   -0.18898E+00   -0.53507E+00 12460   0.335E+00    0.955E-01
DAV:   2    -0.164622858357E+04    0.39568E-01   -0.83223E-02 15640   0.454E-01    0.490E-01
DAV:   3    -0.164621775042E+04    0.10833E-01   -0.37767E-02 15832   0.326E-01    0.245E-01
DAV:   4    -0.164621367034E+04    0.40801E-02   -0.16823E-02 15848   0.270E-01    0.585E-02
DAV:   5    -0.164621373201E+04   -0.61667E-04   -0.43390E-03 15376   0.109E-01    0.431E-02
DAV:   6    -0.164621377723E+04   -0.45228E-04   -0.61542E-04 16056   0.369E-02    0.281E-02
DAV:   7    -0.164621380253E+04   -0.25300E-04   -0.14712E-04 15776   0.159E-02    0.139E-02
DAV:   8    -0.164621380380E+04   -0.12680E-05   -0.38434E-05 10808   0.102E-02
   4 F= -.16462138E+04 E0= -.16462171E+04  d E =-.134624E+00
       N       E                     dE             d eps       ncg     rms          rms(c)
DAV:   1    -0.164621629485E+04   -0.24923E-02   -0.53070E-01 12563   0.909E-01    0.113E-01
DAV:   2    -0.164621660674E+04   -0.31189E-03   -0.80670E-03 17072   0.145E-01    0.714E-02
DAV:   3    -0.164621651522E+04    0.91519E-04   -0.12245E-03 17259   0.614E-02    0.530E-02
DAV:   4    -0.164621646406E+04    0.51167E-04   -0.31247E-04 17416   0.329E-02    0.248E-02
DAV:   5    -0.164621646029E+04    0.37621E-05   -0.14051E-04 14888   0.181E-02    0.729E-03
DAV:   6    -0.164621645851E+04    0.17839E-05   -0.15849E-05  8120   0.656E-03
   5 F= -.16462165E+04 E0= -.16462197E+04  d E =-.265471E-02
       N       E                     dE             d eps       ncg     rms          rms(c)
DAV:   1    -0.164621683962E+04   -0.37933E-03   -0.86630E-02 12600   0.374E-01    0.581E-02
DAV:   2    -0.164621684104E+04   -0.14179E-05   -0.12259E-03 16336   0.596E-02    0.333E-02
DAV:   3    -0.164621683006E+04    0.10976E-04   -0.24079E-04 17272   0.269E-02    0.235E-02
DAV:   4    -0.164621682944E+04    0.61867E-06   -0.77625E-05 15096   0.176E-02    0.924E-03
DAV:   5    -0.164621683758E+04   -0.81377E-05   -0.24854E-05  7848   0.837E-03
   6 F= -.16462168E+04 E0= -.16462200E+04  d E =-.379072E-03
       N       E                     dE             d eps       ncg     rms          rms(c)
DAV:   1    -0.164621716248E+04   -0.33304E-03   -0.95239E-03 12692   0.147E-01    0.480E-02
DAV:   2    -0.164621701351E+04    0.14897E-03   -0.18155E-04 14592   0.217E-02    0.236E-02
DAV:   3    -0.164621696015E+04    0.53356E-04   -0.81944E-05 14686   0.159E-02    0.108E-02
DAV:   4    -0.164621693678E+04    0.23370E-04   -0.28556E-05  9952   0.124E-02    0.304E-03
DAV:   5    -0.164621693187E+04    0.49094E-05   -0.96321E-06  7008   0.570E-03
   7 F= -.16462169E+04 E0= -.16462202E+04  d E =-.942909E-04
       N       E                     dE             d eps       ncg     rms          rms(c)
DAV:   1    -0.164621705718E+04   -0.12040E-03   -0.12848E-02 12608   0.145E-01    0.225E-02
DAV:   2    -0.164621706596E+04   -0.87723E-05   -0.13350E-04 15648   0.217E-02    0.138E-02
DAV:   3    -0.164621706654E+04   -0.58294E-06   -0.24765E-05  9808   0.982E-03    0.948E-03
DAV:   4    -0.164621707511E+04   -0.85716E-05   -0.14876E-05  7144   0.697E-03    0.166E-03
DAV:   5    -0.164621707595E+04   -0.83966E-06   -0.39087E-06  6872   0.422E-03
   8 F= -.16462171E+04 E0= -.16462203E+04  d E =-.144078E-03
       N       E                     dE             d eps       ncg     rms          rms(c)
DAV:   1    -0.164621711709E+04   -0.41975E-04   -0.51238E-03 12592   0.897E-02    0.107E-02
DAV:   2    -0.164621711466E+04    0.24295E-05   -0.45002E-05 11408   0.133E-02    0.729E-03
DAV:   3    -0.164621711243E+04    0.22246E-05   -0.94374E-06  7408   0.712E-03    0.537E-03
DAV:   4    -0.164621710832E+04    0.41091E-05   -0.68249E-06  6776   0.435E-03    0.950E-04
DAV:   5    -0.164621710862E+04   -0.29509E-06   -0.23341E-06  6696   0.298E-03
   9 F= -.16462171E+04 E0= -.16462204E+04  d E =-.326677E-04
       N       E                     dE             d eps       ncg     rms          rms(c)
DAV:   1    -0.164621711675E+04   -0.84253E-05   -0.15792E-03 12624   0.515E-02    0.931E-03
DAV:   2    -0.164621712163E+04   -0.48855E-05   -0.12767E-05  6760   0.653E-03    0.540E-03
DAV:   3    -0.164621712589E+04   -0.42605E-05   -0.54793E-06  6707   0.475E-03    0.244E-03
DAV:   4    -0.164621712899E+04   -0.30988E-05   -0.28712E-06  6680   0.376E-03    0.769E-04
DAV:   5    -0.164621712948E+04   -0.48679E-06   -0.13687E-06  6675   0.224E-03
  10 F= -.16462171E+04 E0= -.16462204E+04  d E =-.208618E-04
       N       E                     dE             d eps       ncg     rms          rms(c)
DAV:   1    -0.164621714963E+04   -0.20632E-04   -0.60835E-04 12624   0.328E-02    0.718E-03
DAV:   2    -0.164621714193E+04    0.76991E-05   -0.61157E-06  6650   0.450E-03    0.392E-03
DAV:   3    -0.164621713787E+04    0.40570E-05   -0.27292E-06  6634   0.352E-03    0.192E-03
DAV:   4    -0.164621713517E+04    0.26971E-05   -0.15219E-06  6650   0.275E-03    0.573E-04
DAV:   5    -0.164621713473E+04    0.44036E-06   -0.70919E-07  6650   0.160E-03
  11 F= -.16462171E+04 E0= -.16462204E+04  d E =-.525175E-05
       N       E                     dE             d eps       ncg     rms          rms(c)
DAV:   1    -0.164621714377E+04   -0.86020E-05   -0.11713E-03 12576   0.428E-02    0.473E-03
DAV:   2    -0.164621714509E+04   -0.13155E-05   -0.73518E-06  6884   0.484E-03    0.335E-03
DAV:   3    -0.164621714566E+04   -0.56870E-06   -0.23238E-06  6596   0.289E-03    0.196E-03
DAV:   4    -0.164621714660E+04   -0.93836E-06   -0.15304E-06  6548   0.234E-03    0.406E-04
DAV:   5    -0.164621714652E+04    0.80756E-07   -0.74887E-07  6540   0.162E-03
  12 F= -.16462171E+04 E0= -.16462204E+04  d E =-.117842E-04
       N       E                     dE             d eps       ncg     rms          rms(c)
DAV:   1    -0.164621715724E+04   -0.10644E-04   -0.12839E-03 12576   0.450E-02    0.545E-03
DAV:   2    -0.164621715455E+04    0.26885E-05   -0.83726E-06  7169   0.502E-03    0.365E-03
DAV:   3    -0.164621715276E+04    0.17903E-05   -0.29227E-06  6578   0.310E-03    0.187E-03
DAV:   4    -0.164621715121E+04    0.15565E-05   -0.16679E-06  6524   0.252E-03    0.456E-04
DAV:   5    -0.164621715136E+04   -0.15262E-06   -0.87363E-07  6524   0.174E-03
  13 F= -.16462172E+04 E0= -.16462204E+04  d E =-.484186E-05
       N       E                     dE             d eps       ncg     rms          rms(c)
DAV:   1    -0.164621715001E+04    0.11997E-05   -0.41203E-05 10912   0.101E-02    0.345E-03
DAV:   2    -0.164621715279E+04   -0.27834E-05   -0.13515E-06  6516   0.206E-03    0.168E-03
DAV:   3    -0.164621715516E+04   -0.23745E-05   -0.51075E-07  6452   0.106E-03    0.541E-04
DAV:   4    -0.164621715597E+04   -0.80616E-06   -0.19462E-07  6436   0.837E-04    0.215E-04
DAV:   5    -0.164621715632E+04   -0.35059E-06   -0.98809E-08  6404   0.513E-04
  14 F= -.16462172E+04 E0= -.16462204E+04  d E =-.496238E-05
       N       E                     dE             d eps       ncg     rms          rms(c)
DAV:   1    -0.164621716216E+04   -0.61865E-05   -0.59055E-04 12560   0.304E-02    0.323E-03
DAV:   2    -0.164621716155E+04    0.60187E-06   -0.33112E-06  6404   0.310E-03    0.231E-03
DAV:   3    -0.164621716090E+04    0.65731E-06   -0.11134E-06  6396   0.173E-03    0.876E-04
DAV:   4    -0.164621716052E+04    0.37795E-06   -0.57348E-07  6404   0.140E-03    0.280E-04
DAV:   5    -0.164621716064E+04   -0.12059E-06   -0.30063E-07  6404   0.987E-04
  15 F= -.16462172E+04 E0= -.16462204E+04  d E =-.431934E-05
       N       E                     dE             d eps       ncg     rms          rms(c)
DAV:   1    -0.164621716495E+04   -0.44343E-05   -0.13853E-03 12560   0.465E-02    0.498E-03
DAV:   2    -0.164621716653E+04   -0.15766E-05   -0.79393E-06  6515   0.477E-03    0.356E-03
DAV:   3    -0.164621716800E+04   -0.14725E-05   -0.31715E-06  6419   0.267E-03    0.528E-04
DAV:   4    -0.164621716822E+04   -0.22016E-06   -0.12694E-06  6404   0.189E-03    0.336E-04
DAV:   5    -0.164621716820E+04    0.22840E-07   -0.70053E-07  6404   0.141E-03
  16 F= -.16462172E+04 E0= -.16462204E+04  d E =-.756017E-05
       N       E                     dE             d eps       ncg     rms          rms(c)
DAV:   1    -0.164621717000E+04   -0.17797E-05   -0.18121E-04 12336   0.178E-02    0.354E-03
DAV:   2    -0.164621716650E+04    0.34988E-05   -0.11762E-06  6404   0.179E-03    0.194E-03
DAV:   3    -0.164621716368E+04    0.28206E-05   -0.61920E-07  6396   0.114E-03    0.470E-04
DAV:   4    -0.164621716310E+04    0.58195E-06   -0.14432E-07  6380   0.815E-04    0.236E-04
DAV:   5    -0.164621716294E+04    0.16516E-06   -0.48859E-08  6380   0.449E-04
  17 F= -.16462172E+04 E0= -.16462204E+04  d E =0.526400E-05
       N       E                     dE             d eps       ncg     rms          rms(c)
DAV:   1    -0.164621716550E+04   -0.23991E-05   -0.49194E-04 12528   0.278E-02    0.296E-03
DAV:   2    -0.164621716647E+04   -0.97231E-06   -0.25597E-06  6380   0.271E-03    0.209E-03
DAV:   3    -0.164621716754E+04   -0.10688E-05   -0.96674E-07  6380   0.143E-03    0.282E-04
DAV:   4    -0.164621716760E+04   -0.62256E-07   -0.34570E-07  6380   0.923E-04    0.174E-04
DAV:   5    -0.164621716759E+04    0.15023E-07   -0.18116E-07  6380   0.689E-04
  18 F= -.16462172E+04 E0= -.16462204E+04  d E =-.465256E-05
       N       E                     dE             d eps       ncg     rms          rms(c)
DAV:   1    -0.164621717054E+04   -0.29316E-05   -0.58688E-04 12560   0.302E-02    0.318E-03
DAV:   2    -0.164621717025E+04    0.28959E-06   -0.33978E-06  6380   0.313E-03    0.231E-03
DAV:   3    -0.164621716966E+04    0.58293E-06   -0.13691E-06  6380   0.174E-03    0.313E-04
DAV:   4    -0.164621716967E+04   -0.11306E-07   -0.55807E-07  6380   0.120E-03    0.220E-04
DAV:   5    -0.164621716973E+04   -0.58556E-07   -0.30921E-07  6380   0.921E-04
  19 F= -.16462172E+04 E0= -.16462204E+04  d E =-.214392E-05
       N       E                     dE             d eps       ncg     rms          rms(c)
DAV:   1    -0.164621716684E+04    0.28368E-05   -0.58544E-05 11944   0.107E-02    0.281E-03
DAV:   2    -0.164621716906E+04   -0.22204E-05   -0.70669E-07  6380   0.135E-03    0.145E-03
DAV:   3    -0.164621717096E+04   -0.19039E-05   -0.34312E-07  6380   0.871E-04    0.418E-04
DAV:   4    -0.164621717155E+04   -0.59031E-06   -0.91935E-08  6380   0.653E-04    0.182E-04
DAV:   5    -0.164621717177E+04   -0.22220E-06   -0.33773E-08  6380   0.363E-04
  20 F= -.16462172E+04 E0= -.16462204E+04  d E =-.204136E-05
       N       E                     dE             d eps       ncg     rms          rms(c)
DAV:   1    -0.164621717522E+04   -0.36663E-05   -0.21751E-04 12336   0.186E-02    0.241E-03
DAV:   2    -0.164621717371E+04    0.15075E-05   -0.12971E-06  6380   0.192E-03    0.154E-03
DAV:   3    -0.164621717232E+04    0.13880E-05   -0.48003E-07  6380   0.105E-03    0.428E-04
DAV:   4    -0.164621717197E+04    0.35361E-06   -0.18438E-07  6380   0.770E-04    0.196E-04
DAV:   5    -0.164621717197E+04   -0.29472E-08   -0.92043E-08  6380   0.548E-04
  21 F= -.16462172E+04 E0= -.16462204E+04  d E =-.197998E-06
       N       E                     dE             d eps       ncg     rms          rms(c)
DAV:   1    -0.164621717279E+04   -0.82307E-06   -0.13191E-04 12312   0.143E-02    0.153E-03
DAV:   2    -0.164621717294E+04   -0.14596E-06   -0.86501E-07  6380   0.157E-03    0.110E-03
DAV:   3    -0.164621717307E+04   -0.13663E-06   -0.35939E-07  6380   0.887E-04    0.186E-04
DAV:   4    -0.164621717308E+04   -0.66489E-08   -0.14343E-07  6380   0.584E-04    0.983E-05
DAV:   5    -0.164621717308E+04   -0.24311E-08   -0.79878E-08  6380   0.444E-04
  22 F= -.16462172E+04 E0= -.16462204E+04  d E =-.111179E-05
