       N       E                     dE             d eps       ncg     rms          rms(c)
DAV:   1     0.270809196629E+04    0.27081E+04   -0.31575E+05 12500   0.145E+03
DAV:   2    -0.118944588432E+04   -0.38975E+04   -0.37255E+04 14250   0.343E+02
DAV:   3    -0.170282598306E+04   -0.51338E+03   -0.48839E+03 19024   0.832E+01
DAV:   4    -0.172850406766E+04   -0.25678E+02   -0.24950E+02 17528   0.187E+01
DAV:   5    -0.172955236323E+04   -0.10483E+01   -0.10326E+01 19568   0.382E+00    0.465E+01
DAV:   6    -0.166991079404E+04    0.59642E+02   -0.11688E+02 17952   0.142E+01    0.240E+01
DAV:   7    -0.165297634721E+04    0.16934E+02   -0.72142E+01 17216   0.135E+01    0.125E+01
DAV:   8    -0.164521717474E+04    0.77592E+01   -0.32724E+01 16952   0.110E+01    0.371E+00
DAV:   9    -0.164495773971E+04    0.25944E+00   -0.98227E+00 17728   0.495E+00    0.192E+00
DAV:  10    -0.164494877837E+04    0.89613E-02   -0.12913E+00 15664   0.170E+00    0.133E+00
DAV:  11    -0.164491302749E+04    0.35751E-01   -0.40638E-01 17056   0.827E-01    0.637E-01
DAV:  12    -0.164490119350E+04    0.11834E-01   -0.55682E-02 17544   0.350E-01    0.281E-01
DAV:  13    -0.164489892875E+04    0.22647E-02   -0.14265E-02 17168   0.179E-01    0.957E-02
DAV:  14    -0.164489893167E+04   -0.29211E-05   -0.33733E-03 15272   0.915E-02    0.417E-02
DAV:  15    -0.164489895649E+04   -0.24820E-04   -0.64874E-04 15080   0.454E-02    0.206E-02
DAV:  16    -0.164489894781E+04    0.86817E-05   -0.14070E-04 15600   0.197E-02    0.111E-02
DAV:  17    -0.164489893800E+04    0.98082E-05   -0.32512E-05  9368   0.102E-02
   1 F= -.16448989E+04 E0= -.16449004E+04  d E =-.164490E+04
       N       E                     dE             d eps       ncg     rms          rms(c)
DAV:   1    -0.164545664975E+04   -0.55770E+00   -0.15511E+02 12460   0.157E+01    0.268E+00
DAV:   2    -0.164534771518E+04    0.10893E+00   -0.30883E+00 17336   0.247E+00    0.146E+00
DAV:   3    -0.164528769860E+04    0.60017E-01   -0.51321E-01 16920   0.113E+00    0.988E-01
DAV:   4    -0.164525816081E+04    0.29538E-01   -0.13909E-01 16600   0.717E-01    0.477E-01
DAV:   5    -0.164525105296E+04    0.71078E-02   -0.64655E-02 15704   0.455E-01    0.175E-01
DAV:   6    -0.164525135103E+04   -0.29807E-03   -0.12467E-02 16000   0.173E-01    0.125E-01
DAV:   7    -0.164525125237E+04    0.98665E-04   -0.27189E-03 15888   0.698E-02    0.670E-02
DAV:   8    -0.164525131371E+04   -0.61344E-04   -0.74014E-04 15320   0.404E-02    0.278E-02
DAV:   9    -0.164525127801E+04    0.35700E-04   -0.15131E-04 16096   0.224E-02    0.141E-02
DAV:  10    -0.164525126933E+04    0.86820E-05   -0.75503E-05 14152   0.117E-02
   2 F= -.16452513E+04 E0= -.16452587E+04  d E =-.352331E+00
       N       E                     dE             d eps       ncg     rms          rms(c)
DAV:   1    -0.164565404386E+04   -0.40277E+00   -0.16842E+01 12460   0.642E+00    0.216E+00
DAV:   2    -0.164543435667E+04    0.21969E+00   -0.32941E-01 13528   0.846E-01    0.104E+00
DAV:   3    -0.164537704872E+04    0.57308E-01   -0.14757E-01 14484   0.589E-01    0.332E-01
DAV:   4    -0.164537195449E+04    0.50942E-02   -0.36137E-02 15720   0.347E-01    0.108E-01
DAV:   5    -0.164537172929E+04    0.22521E-03   -0.86828E-03 15644   0.179E-01    0.578E-02
DAV:   6    -0.164537201158E+04   -0.28230E-03   -0.18432E-03 16632   0.624E-02    0.394E-02
DAV:   7    -0.164537215285E+04   -0.14127E-03   -0.31806E-04 16112   0.253E-02    0.219E-02
DAV:   8    -0.164537223023E+04   -0.77379E-04   -0.90626E-05 14296   0.139E-02    0.100E-02
DAV:   9    -0.164537225705E+04   -0.26819E-04   -0.30384E-05  9256   0.879E-03    0.427E-03
DAV:  10    -0.164537226424E+04   -0.71951E-05   -0.11028E-05  7512   0.519E-03
   3 F= -.16453723E+04 E0= -.16453744E+04  d E =-.120995E+00
       N       E                     dE             d eps       ncg     rms          rms(c)
DAV:   1    -0.164555860879E+04   -0.18635E+00   -0.63631E+00 12460   0.356E+00    0.951E-01
DAV:   2    -0.164552168028E+04    0.36929E-01   -0.98578E-02 16048   0.493E-01    0.494E-01
DAV:   3    -0.164551156948E+04    0.10111E-01   -0.40249E-02 16219   0.332E-01    0.269E-01
DAV:   4    -0.164550686462E+04    0.47049E-02   -0.18648E-02 16176   0.277E-01    0.687E-02
DAV:   5    -0.164550685116E+04    0.13463E-04   -0.48819E-03 15523   0.117E-01    0.455E-02
DAV:   6    -0.164550690177E+04   -0.50615E-04   -0.72572E-04 15672   0.403E-02    0.303E-02
DAV:   7    -0.164550692577E+04   -0.23998E-04   -0.17202E-04 16872   0.169E-02    0.153E-02
DAV:   8    -0.164550692700E+04   -0.12295E-05   -0.40907E-05 11280   0.104E-02
   4 F= -.16455069E+04 E0= -.16455111E+04  d E =-.134663E+00
       N       E                     dE             d eps       ncg     rms          rms(c)
DAV:   1    -0.164550996341E+04   -0.30376E-02   -0.64710E-01 12545   0.100E+00    0.128E-01
DAV:   2    -0.164551031112E+04   -0.34771E-03   -0.10254E-02 17304   0.159E-01    0.796E-02
DAV:   3    -0.164551017866E+04    0.13246E-03   -0.16416E-03 17513   0.700E-02    0.588E-02
DAV:   4    -0.164551011153E+04    0.67127E-04   -0.38738E-04 17768   0.358E-02    0.307E-02
DAV:   5    -0.164551010062E+04    0.10905E-04   -0.19543E-04 14752   0.207E-02    0.848E-03
DAV:   6    -0.164551009862E+04    0.20025E-05   -0.20418E-05  8408   0.742E-03
   5 F= -.16455101E+04 E0= -.16455144E+04  d E =-.317162E-02
       N       E                     dE             d eps       ncg     rms          rms(c)
DAV:   1    -0.164551066321E+04   -0.56258E-03   -0.82890E-02 12658   0.362E-01    0.498E-02
DAV:   2    -0.164551069979E+04   -0.36581E-04   -0.11861E-03 16928   0.589E-02    0.304E-02
DAV:   3    -0.164551068534E+04    0.14453E-04   -0.22629E-04 17942   0.264E-02    0.224E-02
DAV:   4    -0.164551068112E+04    0.42201E-05   -0.57858E-05 13480   0.141E-02    0.100E-02
DAV:   5    -0.164551068621E+04   -0.50967E-05   -0.20892E-05  7712   0.747E-03
   6 F= -.16455107E+04 E0= -.16455149E+04  d E =-.587590E-03
       N       E                     dE             d eps       ncg     rms          rms(c)
DAV:   1    -0.164551091973E+04   -0.23861E-03   -0.31359E-02 12608   0.226E-01    0.350E-02
DAV:   2    -0.164551087986E+04    0.39870E-04   -0.36816E-04 15960   0.364E-02    0.212E-02
DAV:   3    -0.164551085731E+04    0.22545E-04   -0.91258E-05 15488   0.183E-02    0.153E-02
DAV:   4    -0.164551083216E+04    0.25151E-04   -0.29326E-05  8600   0.106E-02    0.420E-03
DAV:   5    -0.164551082882E+04    0.33430E-05   -0.97500E-06  7128   0.571E-03
   7 F= -.16455108E+04 E0= -.16455151E+04  d E =-.142607E-03
       N       E                     dE             d eps       ncg     rms          rms(c)
DAV:   1    -0.164551091516E+04   -0.82993E-04   -0.40866E-03 12718   0.918E-02    0.265E-02
DAV:   2    -0.164551090939E+04    0.57652E-05   -0.55049E-05 13848   0.112E-02    0.134E-02
DAV:   3    -0.164551091953E+04   -0.10135E-04   -0.20233E-05  7352   0.758E-03    0.425E-03
DAV:   4    -0.164551092514E+04   -0.56108E-05   -0.69399E-06  6968   0.550E-03    0.133E-03
DAV:   5    -0.164551092716E+04   -0.20195E-05   -0.28918E-06  6808   0.353E-03
   8 F= -.16455109E+04 E0= -.16455151E+04  d E =-.983362E-04
       N       E                     dE             d eps       ncg     rms          rms(c)
DAV:   1    -0.164551100805E+04   -0.82910E-04   -0.72945E-03 12629   0.108E-01    0.148E-02
DAV:   2    -0.164551099910E+04    0.89426E-05   -0.71472E-05 14992   0.157E-02    0.956E-03
DAV:   3    -0.164551099376E+04    0.53385E-05   -0.14213E-05  8622   0.757E-03    0.692E-03
DAV:   4    -0.164551098548E+04    0.82868E-05   -0.89099E-06  6840   0.471E-03    0.131E-03
DAV:   5    -0.164551098524E+04    0.23895E-06   -0.23359E-06  6696   0.310E-03
   9 F= -.16455110E+04 E0= -.16455152E+04  d E =-.580833E-04
       N       E                     dE             d eps       ncg     rms          rms(c)
DAV:   1    -0.164551101660E+04   -0.31121E-04   -0.44882E-03 12608   0.837E-02    0.953E-03
DAV:   2    -0.164551102046E+04   -0.38647E-05   -0.30368E-05  9648   0.103E-02    0.664E-03
DAV:   3    -0.164551102129E+04   -0.82139E-06   -0.81638E-06  7136   0.610E-03    0.471E-03
DAV:   4    -0.164551102422E+04   -0.29387E-05   -0.58894E-06  6680   0.429E-03    0.824E-04
DAV:   5    -0.164551102407E+04    0.15053E-06   -0.23292E-06  6680   0.298E-03
  10 F= -.16455110E+04 E0= -.16455152E+04  d E =-.388344E-04
       N       E                     dE             d eps       ncg     rms          rms(c)
DAV:   1    -0.164551104526E+04   -0.21033E-04   -0.11129E-03 12624   0.436E-02    0.868E-03
DAV:   2    -0.164551103575E+04    0.95100E-05   -0.10329E-05  6680   0.563E-03    0.482E-03
DAV:   3    -0.164551103094E+04    0.48032E-05   -0.45429E-06  6638   0.436E-03    0.245E-03
DAV:   4    -0.164551102757E+04    0.33717E-05   -0.25044E-06  6680   0.341E-03    0.757E-04
DAV:   5    -0.164551102707E+04    0.50429E-06   -0.12307E-06  6659   0.208E-03
  11 F= -.16455110E+04 E0= -.16455153E+04  d E =-.299399E-05
       N       E                     dE             d eps       ncg     rms          rms(c)
DAV:   1    -0.164551103838E+04   -0.10806E-04   -0.92187E-04 12608   0.390E-02    0.657E-03
DAV:   2    -0.164551104209E+04   -0.37145E-05   -0.70198E-06  6641   0.449E-03    0.388E-03
DAV:   3    -0.164551104560E+04   -0.35110E-05   -0.31484E-06  6604   0.312E-03    0.137E-03
DAV:   4    -0.164551104707E+04   -0.14639E-05   -0.14167E-06  6602   0.253E-03    0.579E-04
DAV:   5    -0.164551104740E+04   -0.33535E-06   -0.74017E-07  6586   0.159E-03
  12 F= -.16455110E+04 E0= -.16455153E+04  d E =-.203352E-04
       N       E                     dE             d eps       ncg     rms          rms(c)
DAV:   1    -0.164551106130E+04   -0.14232E-04   -0.14660E-03 12576   0.477E-02    0.519E-03
DAV:   2    -0.164551106050E+04    0.80007E-06   -0.89257E-06  7218   0.516E-03    0.369E-03
DAV:   3    -0.164551105982E+04    0.68216E-06   -0.29780E-06  6595   0.308E-03    0.206E-03
DAV:   4    -0.164551105896E+04    0.85685E-06   -0.18570E-06  6515   0.254E-03    0.435E-04
DAV:   5    -0.164551105919E+04   -0.23253E-06   -0.92986E-07  6510   0.176E-03
  13 F= -.16455111E+04 E0= -.16455153E+04  d E =-.117898E-04
       N       E                     dE             d eps       ncg     rms          rms(c)
DAV:   1    -0.164551106572E+04   -0.67589E-05   -0.14763E-03 12560   0.483E-02    0.618E-03
DAV:   2    -0.164551106900E+04   -0.32821E-05   -0.96175E-06  7187   0.517E-03    0.404E-03
DAV:   3    -0.164551107207E+04   -0.30670E-05   -0.39521E-06  6531   0.313E-03    0.113E-03
DAV:   4    -0.164551107307E+04   -0.99834E-06   -0.17388E-06  6476   0.246E-03    0.538E-04
DAV:   5    -0.164551107314E+04   -0.77691E-07   -0.94704E-07  6460   0.176E-03
  14 F= -.16455111E+04 E0= -.16455153E+04  d E =-.139515E-04
       N       E                     dE             d eps       ncg     rms          rms(c)
DAV:   1    -0.164551107974E+04   -0.66765E-05   -0.60803E-05 12040   0.121E-02    0.405E-03
DAV:   2    -0.164551107526E+04    0.44835E-05   -0.13756E-06  6452   0.190E-03    0.196E-03
DAV:   3    -0.164551107219E+04    0.30688E-05   -0.75008E-07  6452   0.138E-03    0.593E-04
DAV:   4    -0.164551107131E+04    0.88312E-06   -0.27119E-07  6452   0.115E-03    0.251E-04
DAV:   5    -0.164551107095E+04    0.36141E-06   -0.13578E-07  6452   0.656E-04
  15 F= -.16455111E+04 E0= -.16455153E+04  d E =0.219800E-05
       N       E                     dE             d eps       ncg     rms          rms(c)
DAV:   1    -0.164551107693E+04   -0.56238E-05   -0.75663E-04 12560   0.343E-02    0.358E-03
DAV:   2    -0.164551107759E+04   -0.66002E-06   -0.41639E-06  6452   0.343E-03    0.258E-03
DAV:   3    -0.164551107811E+04   -0.52135E-06   -0.15800E-06  6444   0.195E-03    0.507E-04
DAV:   4    -0.164551107830E+04   -0.19225E-06   -0.67877E-07  6428   0.149E-03    0.327E-04
DAV:   5    -0.164551107827E+04    0.34211E-07   -0.38007E-07  6420   0.106E-03
  16 F= -.16455111E+04 E0= -.16455153E+04  d E =-.732463E-05
       N       E                     dE             d eps       ncg     rms          rms(c)
DAV:   1    -0.164551108886E+04   -0.10552E-04   -0.28233E-03 12560   0.663E-02    0.707E-03
DAV:   2    -0.164551108729E+04    0.15715E-05   -0.15956E-05  8168   0.670E-03    0.501E-03
DAV:   3    -0.164551108491E+04    0.23741E-05   -0.57015E-06  6689   0.371E-03    0.130E-03
DAV:   4    -0.164551108445E+04    0.45905E-06   -0.25426E-06  6428   0.287E-03    0.532E-04
DAV:   5    -0.164551108476E+04   -0.30401E-06   -0.13721E-06  6420   0.208E-03
  17 F= -.16455111E+04 E0= -.16455153E+04  d E =-.648578E-05
       N       E                     dE             d eps       ncg     rms          rms(c)
DAV:   1    -0.164551107884E+04    0.56073E-05   -0.63341E-04 12560   0.323E-02    0.506E-03
DAV:   2    -0.164551108183E+04   -0.29845E-05   -0.33122E-06  6380   0.304E-03    0.297E-03
DAV:   3    -0.164551108454E+04   -0.27124E-05   -0.12919E-06  6380   0.175E-03    0.100E-03
DAV:   4    -0.164551108560E+04   -0.10580E-05   -0.40724E-07  6380   0.128E-03    0.431E-04
DAV:   5    -0.164551108581E+04   -0.21064E-06   -0.14796E-07  6380   0.780E-04
  18 F= -.16455111E+04 E0= -.16455153E+04  d E =-.105419E-05
       N       E                     dE             d eps       ncg     rms          rms(c)
DAV:   1    -0.164551109187E+04   -0.62687E-05   -0.82831E-04 12560   0.360E-02    0.372E-03
DAV:   2    -0.164551109101E+04    0.85900E-06   -0.41043E-06  6380   0.343E-03    0.264E-03
DAV:   3    -0.164551108982E+04    0.11913E-05   -0.14073E-06  6380   0.178E-03    0.515E-04
DAV:   4    -0.164551108964E+04    0.17351E-06   -0.54453E-07  6380   0.127E-03    0.271E-04
DAV:   5    -0.164551108975E+04   -0.10666E-06   -0.28335E-07  6380   0.928E-04
  19 F= -.16455111E+04 E0= -.16455153E+04  d E =-.394095E-05
       N       E                     dE             d eps       ncg     rms          rms(c)
DAV:   1    -0.164551109312E+04   -0.34783E-05   -0.10656E-03 12560   0.407E-02    0.421E-03
DAV:   2    -0.164551109376E+04   -0.63857E-06   -0.60349E-06  6380   0.413E-03    0.306E-03
DAV:   3    -0.164551109418E+04   -0.41622E-06   -0.25217E-06  6380   0.232E-03    0.455E-04
DAV:   4    -0.164551109425E+04   -0.69575E-07   -0.97615E-07  6380   0.152E-03    0.265E-04
DAV:   5    -0.164551109428E+04   -0.33672E-07   -0.53462E-07  6380   0.116E-03
  20 F= -.16455111E+04 E0= -.16455153E+04  d E =-.452964E-05
       N       E                     dE             d eps       ncg     rms          rms(c)
DAV:   1    -0.164551109685E+04   -0.25997E-05   -0.10980E-04 12312   0.147E-02    0.385E-03
DAV:   2    -0.164551109271E+04    0.41363E-05   -0.10062E-06  6380   0.164E-03    0.199E-03
DAV:   3    -0.164551108969E+04    0.30201E-05   -0.63438E-07  6380   0.117E-03    0.538E-04
DAV:   4    -0.164551108893E+04    0.76477E-06   -0.16141E-07  6380   0.901E-04    0.248E-04
DAV:   5    -0.164551108865E+04    0.28037E-06   -0.58557E-08  6380   0.491E-04
  21 F= -.16455111E+04 E0= -.16455153E+04  d E =0.563548E-05
       N       E                     dE             d eps       ncg     rms          rms(c)
DAV:   1    -0.164551108940E+04   -0.47360E-06   -0.27169E-04 12432   0.210E-02    0.309E-03
DAV:   2    -0.164551109136E+04   -0.19616E-05   -0.16370E-06  6380   0.214E-03    0.188E-03
DAV:   3    -0.164551109323E+04   -0.18677E-05   -0.68978E-07  6380   0.123E-03    0.499E-04
DAV:   4    -0.164551109373E+04   -0.50257E-06   -0.24402E-07  6380   0.885E-04    0.253E-04
DAV:   5    -0.164551109381E+04   -0.74440E-07   -0.11647E-07  6380   0.609E-04
  22 F= -.16455111E+04 E0= -.16455153E+04  d E =-.516029E-05
       N       E                     dE             d eps       ncg     rms          rms(c)
DAV:   1    -0.164551109477E+04   -0.10360E-05   -0.12151E-04 12312   0.137E-02    0.147E-03
DAV:   2    -0.164551109477E+04    0.19522E-08   -0.81020E-07  6380   0.151E-03    0.106E-03
DAV:   3    -0.164551109471E+04    0.55730E-07   -0.34130E-07  6380   0.867E-04    0.172E-04
DAV:   4    -0.164551109472E+04   -0.72746E-08   -0.14001E-07  6380   0.582E-04    0.103E-04
DAV:   5    -0.164551109473E+04   -0.96347E-08   -0.78818E-08  6380   0.443E-04
  23 F= -.16455111E+04 E0= -.16455153E+04  d E =-.920801E-06
       N       E                     dE             d eps       ncg     rms          rms(c)
DAV:   1    -0.164551109443E+04    0.28642E-06   -0.71916E-04 12560   0.336E-02    0.380E-03
DAV:   2    -0.164551109613E+04   -0.16977E-05   -0.40703E-06  6380   0.339E-03    0.261E-03
DAV:   3    -0.164551109781E+04   -0.16866E-05   -0.15752E-06  6380   0.187E-03    0.518E-04
DAV:   4    -0.164551109814E+04   -0.32085E-06   -0.63035E-07  6380   0.131E-03    0.275E-04
DAV:   5    -0.164551109811E+04    0.20988E-07   -0.33371E-07  6380   0.978E-04
  24 F= -.16455111E+04 E0= -.16455153E+04  d E =-.338806E-05
