       N       E                     dE             d eps       ncg     rms          rms(c)
DAV:   1     0.271951460769E+04    0.27195E+04   -0.31600E+05 12500   0.145E+03
DAV:   2    -0.118953432187E+04   -0.39090E+04   -0.37396E+04 14258   0.344E+02
DAV:   3    -0.170409638226E+04   -0.51456E+03   -0.49003E+03 19080   0.833E+01
DAV:   4    -0.172985724666E+04   -0.25761E+02   -0.25030E+02 17520   0.187E+01
DAV:   5    -0.173092084115E+04   -0.10636E+01   -0.10469E+01 19544   0.386E+00    0.466E+01
DAV:   6    -0.167085928031E+04    0.60062E+02   -0.12141E+02 17976   0.144E+01    0.241E+01
DAV:   7    -0.165405585982E+04    0.16803E+02   -0.74387E+01 17288   0.137E+01    0.128E+01
DAV:   8    -0.164599933334E+04    0.80565E+01   -0.35485E+01 17344   0.114E+01    0.389E+00
DAV:   9    -0.164568263189E+04    0.31670E+00   -0.10666E+01 17888   0.510E+00    0.197E+00
DAV:  10    -0.164566937719E+04    0.13255E-01   -0.13080E+00 15760   0.169E+00    0.138E+00
DAV:  11    -0.164563200549E+04    0.37372E-01   -0.45113E-01 17096   0.865E-01    0.678E-01
DAV:  12    -0.164561847866E+04    0.13527E-01   -0.56352E-02 17368   0.358E-01    0.302E-01
DAV:  13    -0.164561570046E+04    0.27782E-02   -0.16511E-02 17480   0.201E-01    0.117E-01
DAV:  14    -0.164561561307E+04    0.87396E-04   -0.49303E-03 15424   0.107E-01    0.490E-02
DAV:  15    -0.164561565983E+04   -0.46762E-04   -0.91609E-04 15088   0.489E-02    0.226E-02
DAV:  16    -0.164561565846E+04    0.13650E-05   -0.17652E-04 16104   0.216E-02    0.135E-02
DAV:  17    -0.164561564719E+04    0.11280E-04   -0.40659E-05  9856   0.113E-02    0.567E-03
DAV:  18    -0.164561563891E+04    0.82726E-05   -0.17730E-05  8288   0.626E-03
   1 F= -.16456156E+04 E0= -.16456191E+04  d E =-.164562E+04
       N       E                     dE             d eps       ncg     rms          rms(c)
DAV:   1    -0.164613957644E+04   -0.52393E+00   -0.14668E+02 12460   0.152E+01    0.241E+00
DAV:   2    -0.164608848380E+04    0.51093E-01   -0.28838E+00 17104   0.239E+00    0.134E+00
DAV:   3    -0.164604329242E+04    0.45191E-01   -0.44259E-01 16920   0.104E+00    0.918E-01
DAV:   4    -0.164602062666E+04    0.22666E-01   -0.11483E-01 16920   0.656E-01    0.465E-01
DAV:   5    -0.164601441982E+04    0.62068E-02   -0.57185E-02 15696   0.417E-01    0.158E-01
DAV:   6    -0.164601457291E+04   -0.15309E-03   -0.10219E-02 16312   0.151E-01    0.114E-01
DAV:   7    -0.164601442661E+04    0.14630E-03   -0.23960E-03 15832   0.653E-02    0.580E-02
DAV:   8    -0.164601446880E+04   -0.42198E-04   -0.65958E-04 15144   0.406E-02    0.276E-02
DAV:   9    -0.164601443204E+04    0.36760E-04   -0.13852E-04 15792   0.218E-02    0.137E-02
DAV:  10    -0.164601442506E+04    0.69875E-05   -0.71653E-05 14080   0.109E-02
   2 F= -.16460144E+04 E0= -.16460227E+04  d E =-.398786E+00
       N       E                     dE             d eps       ncg     rms          rms(c)
DAV:   1    -0.164625619818E+04   -0.24177E+00   -0.14368E+01 12480   0.587E+00    0.194E+00
DAV:   2    -0.164607948509E+04    0.17671E+00   -0.29297E-01 14080   0.798E-01    0.940E-01
DAV:   3    -0.164603332622E+04    0.46159E-01   -0.12317E-01 14371   0.533E-01    0.322E-01
DAV:   4    -0.164602862052E+04    0.47057E-02   -0.33029E-02 15776   0.331E-01    0.986E-02
DAV:   5    -0.164602845470E+04    0.16582E-03   -0.76723E-03 15723   0.168E-01    0.554E-02
DAV:   6    -0.164602870829E+04   -0.25359E-03   -0.15482E-03 17048   0.545E-02    0.372E-02
DAV:   7    -0.164602882451E+04   -0.11622E-03   -0.24690E-04 16040   0.222E-02    0.185E-02
DAV:   8    -0.164602888555E+04   -0.61040E-04   -0.72602E-05 13816   0.128E-02    0.841E-03
DAV:   9    -0.164602890332E+04   -0.17765E-04   -0.20605E-05  8496   0.795E-03    0.386E-03
DAV:  10    -0.164602890897E+04   -0.56539E-05   -0.90893E-06  7392   0.450E-03
   3 F= -.16460289E+04 E0= -.16460318E+04  d E =-.144839E-01
       N       E                     dE             d eps       ncg     rms          rms(c)
DAV:   1    -0.164623893634E+04   -0.21003E+00   -0.60333E+00 12460   0.355E+00    0.100E+00
DAV:   2    -0.164619564402E+04    0.43292E-01   -0.88101E-02 15712   0.466E-01    0.519E-01
DAV:   3    -0.164618391253E+04    0.11731E-01   -0.43010E-02 16168   0.348E-01    0.268E-01
DAV:   4    -0.164617877810E+04    0.51344E-02   -0.20372E-02 16168   0.292E-01    0.573E-02
DAV:   5    -0.164617893676E+04   -0.15866E-03   -0.48593E-03 15136   0.110E-01    0.466E-02
DAV:   6    -0.164617898009E+04   -0.43332E-04   -0.61086E-04 16192   0.363E-02    0.298E-02
DAV:   7    -0.164617901155E+04   -0.31460E-04   -0.16999E-04 16304   0.169E-02    0.140E-02
DAV:   8    -0.164617901078E+04    0.76831E-06   -0.40883E-05 11376   0.107E-02
   4 F= -.16461790E+04 E0= -.16461849E+04  d E =-.150102E+00
       N       E                     dE             d eps       ncg     rms          rms(c)
DAV:   1    -0.164618209452E+04   -0.30830E-02   -0.61689E-01 12550   0.980E-01    0.122E-01
DAV:   2    -0.164618241637E+04   -0.32185E-03   -0.92322E-03 16776   0.158E-01    0.778E-02
DAV:   3    -0.164618227953E+04    0.13684E-03   -0.15617E-03 17216   0.683E-02    0.579E-02
DAV:   4    -0.164618221444E+04    0.65099E-04   -0.39684E-04 17568   0.352E-02    0.276E-02
DAV:   5    -0.164618220996E+04    0.44775E-05   -0.17944E-04 14912   0.201E-02    0.811E-03
DAV:   6    -0.164618220738E+04    0.25767E-05   -0.17924E-05  8232   0.691E-03
   5 F= -.16461822E+04 E0= -.16461881E+04  d E =-.319660E-02
       N       E                     dE             d eps       ncg     rms          rms(c)
DAV:   1    -0.164618269513E+04   -0.48518E-03   -0.10974E-01 12581   0.422E-01    0.664E-02
DAV:   2    -0.164618268045E+04    0.14687E-04   -0.15369E-03 16144   0.679E-02    0.384E-02
DAV:   3    -0.164618265926E+04    0.21189E-04   -0.32512E-04 17195   0.311E-02    0.273E-02
DAV:   4    -0.164618265445E+04    0.48125E-05   -0.11008E-04 15720   0.200E-02    0.109E-02
DAV:   5    -0.164618266389E+04   -0.94399E-05   -0.35549E-05  9336   0.970E-03
   6 F= -.16461827E+04 E0= -.16461885E+04  d E =-.456504E-03
       N       E                     dE             d eps       ncg     rms          rms(c)
DAV:   1    -0.164618307445E+04   -0.42000E-03   -0.11440E-02 12618   0.162E-01    0.534E-02
DAV:   2    -0.164618289507E+04    0.17938E-03   -0.23096E-04 14528   0.245E-02    0.263E-02
DAV:   3    -0.164618283470E+04    0.60362E-04   -0.10377E-04 14902   0.178E-02    0.128E-02
DAV:   4    -0.164618280605E+04    0.28649E-04   -0.39150E-05 10768   0.141E-02    0.358E-03
DAV:   5    -0.164618279990E+04    0.61527E-05   -0.12289E-05  7016   0.637E-03
   7 F= -.16461828E+04 E0= -.16461888E+04  d E =-.136016E-03
       N       E                     dE             d eps       ncg     rms          rms(c)
DAV:   1    -0.164618295111E+04   -0.14506E-03   -0.16121E-02 12592   0.162E-01    0.242E-02
DAV:   2    -0.164618296132E+04   -0.10209E-04   -0.16980E-04 16168   0.244E-02    0.152E-02
DAV:   3    -0.164618295995E+04    0.13709E-05   -0.32147E-05 10403   0.113E-02    0.108E-02
DAV:   4    -0.164618296893E+04   -0.89751E-05   -0.19061E-05  7232   0.765E-03    0.179E-03
DAV:   5    -0.164618296958E+04   -0.65164E-06   -0.44697E-06  6936   0.461E-03
   8 F= -.16461830E+04 E0= -.16461889E+04  d E =-.169677E-03
       N       E                     dE             d eps       ncg     rms          rms(c)
DAV:   1    -0.164618301867E+04   -0.49739E-04   -0.61873E-03 12592   0.986E-02    0.119E-02
DAV:   2    -0.164618301622E+04    0.24424E-05   -0.61119E-05 14560   0.150E-02    0.826E-03
DAV:   3    -0.164618301306E+04    0.31652E-05   -0.12155E-05  7976   0.683E-03    0.613E-03
DAV:   4    -0.164618300784E+04    0.52225E-05   -0.83107E-06  6904   0.431E-03    0.121E-03
DAV:   5    -0.164618300819E+04   -0.35451E-06   -0.22616E-06  6760   0.297E-03
   9 F= -.16461830E+04 E0= -.16461889E+04  d E =-.386114E-04
       N       E                     dE             d eps       ncg     rms          rms(c)
DAV:   1    -0.164618301697E+04   -0.91347E-05   -0.16447E-03 12608   0.531E-02    0.103E-02
DAV:   2    -0.164618302199E+04   -0.50218E-05   -0.13633E-05  6976   0.665E-03    0.589E-03
DAV:   3    -0.164618302664E+04   -0.46504E-05   -0.61320E-06  6811   0.505E-03    0.270E-03
DAV:   4    -0.164618303016E+04   -0.35187E-05   -0.32293E-06  6680   0.398E-03    0.809E-04
DAV:   5    -0.164618303079E+04   -0.63218E-06   -0.14741E-06  6680   0.231E-03
  10 F= -.16461830E+04 E0= -.16461889E+04  d E =-.226032E-04
       N       E                     dE             d eps       ncg     rms          rms(c)
DAV:   1    -0.164618305472E+04   -0.24557E-04   -0.82405E-04 12608   0.379E-02    0.804E-03
DAV:   2    -0.164618304600E+04    0.87147E-05   -0.82069E-06  6707   0.532E-03    0.443E-03
DAV:   3    -0.164618304197E+04    0.40369E-05   -0.33655E-06  6659   0.410E-03    0.245E-03
DAV:   4    -0.164618303846E+04    0.35102E-05   -0.20727E-06  6563   0.308E-03    0.658E-04
DAV:   5    -0.164618303796E+04    0.49805E-06   -0.93486E-07  6555   0.186E-03
  11 F= -.16461830E+04 E0= -.16461890E+04  d E =-.716450E-05
       N       E                     dE             d eps       ncg     rms          rms(c)
DAV:   1    -0.164618304693E+04   -0.84742E-05   -0.11801E-03 12592   0.429E-02    0.484E-03
DAV:   2    -0.164618304845E+04   -0.15164E-05   -0.77337E-06  6858   0.501E-03    0.340E-03
DAV:   3    -0.164618304906E+04   -0.61507E-06   -0.24813E-06  6546   0.306E-03    0.216E-03
DAV:   4    -0.164618305024E+04   -0.11797E-05   -0.17137E-06  6491   0.241E-03    0.407E-04
DAV:   5    -0.164618305016E+04    0.80726E-07   -0.82537E-07  6491   0.170E-03
  12 F= -.16461831E+04 E0= -.16461890E+04  d E =-.122027E-04
       N       E                     dE             d eps       ncg     rms          rms(c)
DAV:   1    -0.164618306015E+04   -0.99081E-05   -0.10434E-03 12560   0.406E-02    0.512E-03
DAV:   2    -0.164618305737E+04    0.27811E-05   -0.72317E-06  6827   0.470E-03    0.336E-03
DAV:   3    -0.164618305583E+04    0.15420E-05   -0.25501E-06  6523   0.300E-03    0.194E-03
DAV:   4    -0.164618305407E+04    0.17597E-05   -0.15479E-06  6476   0.239E-03    0.457E-04
DAV:   5    -0.164618305414E+04   -0.73222E-07   -0.80413E-07  6468   0.167E-03
  13 F= -.16461831E+04 E0= -.16461890E+04  d E =-.397928E-05
       N       E                     dE             d eps       ncg     rms          rms(c)
DAV:   1    -0.164618305359E+04    0.47482E-06   -0.57271E-05 11978   0.111E-02    0.342E-03
DAV:   2    -0.164618305624E+04   -0.26482E-05   -0.12681E-06  6547   0.178E-03    0.170E-03
DAV:   3    -0.164618305855E+04   -0.23091E-05   -0.61559E-07  6452   0.117E-03    0.504E-04
DAV:   4    -0.164618305934E+04   -0.79435E-06   -0.24216E-07  6452   0.832E-04    0.213E-04
DAV:   5    -0.164618305961E+04   -0.26954E-06   -0.12092E-07  6452   0.564E-04
  14 F= -.16461831E+04 E0= -.16461890E+04  d E =-.547313E-05
       N       E                     dE             d eps       ncg     rms          rms(c)
DAV:   1    -0.164618306506E+04   -0.57151E-05   -0.52281E-04 12544   0.286E-02    0.308E-03
DAV:   2    -0.164618306442E+04    0.64099E-06   -0.30493E-06  6428   0.300E-03    0.219E-03
DAV:   3    -0.164618306387E+04    0.54639E-06   -0.10062E-06  6412   0.170E-03    0.106E-03
DAV:   4    -0.164618306336E+04    0.51403E-06   -0.58149E-07  6380   0.140E-03    0.264E-04
DAV:   5    -0.164618306348E+04   -0.12532E-06   -0.29470E-07  6380   0.985E-04
  15 F= -.16461831E+04 E0= -.16461890E+04  d E =-.386949E-05
       N       E                     dE             d eps       ncg     rms          rms(c)
DAV:   1    -0.164618306686E+04   -0.35006E-05   -0.10071E-03 12560   0.397E-02    0.432E-03
DAV:   2    -0.164618306839E+04   -0.15269E-05   -0.59414E-06  6419   0.412E-03    0.306E-03
DAV:   3    -0.164618306981E+04   -0.14241E-05   -0.23233E-06  6419   0.236E-03    0.614E-04
DAV:   4    -0.164618307017E+04   -0.36511E-06   -0.10047E-06  6380   0.178E-03    0.323E-04
DAV:   5    -0.164618307010E+04    0.69629E-07   -0.55838E-07  6380   0.130E-03
  16 F= -.16461831E+04 E0= -.16461890E+04  d E =-.662179E-05
       N       E                     dE             d eps       ncg     rms          rms(c)
DAV:   1    -0.164618307225E+04   -0.20745E-05   -0.79286E-05 12176   0.123E-02    0.298E-03
DAV:   2    -0.164618306917E+04    0.30753E-05   -0.73246E-07  6380   0.139E-03    0.156E-03
DAV:   3    -0.164618306678E+04    0.23964E-05   -0.40963E-07  6380   0.935E-04    0.377E-04
DAV:   4    -0.164618306623E+04    0.54234E-06   -0.10032E-07  6380   0.703E-04    0.182E-04
DAV:   5    -0.164618306605E+04    0.18251E-06   -0.37119E-08  6380   0.385E-04
  17 F= -.16461831E+04 E0= -.16461890E+04  d E =0.405246E-05
       N       E                     dE             d eps       ncg     rms          rms(c)
DAV:   1    -0.164618306813E+04   -0.18989E-05   -0.37129E-04 12456   0.241E-02    0.257E-03
DAV:   2    -0.164618306895E+04   -0.81328E-06   -0.20078E-06  6380   0.240E-03    0.182E-03
DAV:   3    -0.164618306983E+04   -0.88080E-06   -0.75354E-07  6380   0.129E-03    0.271E-04
DAV:   4    -0.164618306992E+04   -0.93023E-07   -0.28566E-07  6380   0.891E-04    0.167E-04
DAV:   5    -0.164618306989E+04    0.28677E-07   -0.15435E-07  6380   0.664E-04
  18 F= -.16461831E+04 E0= -.16461890E+04  d E =-.383980E-05
       N       E                     dE             d eps       ncg     rms          rms(c)
DAV:   1    -0.164618307273E+04   -0.28101E-05   -0.54363E-04 12560   0.291E-02    0.307E-03
DAV:   2    -0.164618307234E+04    0.39029E-06   -0.31548E-06  6380   0.301E-03    0.222E-03
DAV:   3    -0.164618307172E+04    0.61794E-06   -0.12012E-06  6380   0.168E-03    0.431E-04
DAV:   4    -0.164618307164E+04    0.84768E-07   -0.52841E-07  6380   0.125E-03    0.245E-04
DAV:   5    -0.164618307172E+04   -0.77426E-07   -0.29334E-07  6380   0.937E-04
  19 F= -.16461831E+04 E0= -.16461890E+04  d E =-.182318E-05
       N       E                     dE             d eps       ncg     rms          rms(c)
DAV:   1    -0.164618306907E+04    0.25635E-05   -0.62773E-05 12032   0.109E-02    0.258E-03
DAV:   2    -0.164618307110E+04   -0.20238E-05   -0.64951E-07  6388   0.130E-03    0.135E-03
DAV:   3    -0.164618307277E+04   -0.16718E-05   -0.29264E-07  6380   0.825E-04    0.433E-04
DAV:   4    -0.164618307336E+04   -0.58877E-06   -0.86353E-08  6380   0.612E-04    0.178E-04
DAV:   5    -0.164618307356E+04   -0.19993E-06   -0.31185E-08  6380   0.348E-04
  20 F= -.16461831E+04 E0= -.16461890E+04  d E =-.184332E-05
       N       E                     dE             d eps       ncg     rms          rms(c)
DAV:   1    -0.164618307649E+04   -0.31279E-05   -0.21564E-04 12336   0.185E-02    0.222E-03
DAV:   2    -0.164618307531E+04    0.11793E-05   -0.12481E-06  6380   0.189E-03    0.147E-03
DAV:   3    -0.164618307421E+04    0.10997E-05   -0.43264E-07  6380   0.101E-03    0.438E-04
DAV:   4    -0.164618307387E+04    0.33881E-06   -0.17767E-07  6380   0.761E-04    0.177E-04
DAV:   5    -0.164618307390E+04   -0.31072E-07   -0.89923E-08  6380   0.546E-04
  21 F= -.16461831E+04 E0= -.16461890E+04  d E =-.341144E-06
       N       E                     dE             d eps       ncg     rms          rms(c)
DAV:   1    -0.164618307468E+04   -0.80749E-06   -0.14246E-04 12312   0.149E-02    0.158E-03
DAV:   2    -0.164618307486E+04   -0.18615E-06   -0.92860E-07  6380   0.163E-03    0.114E-03
DAV:   3    -0.164618307505E+04   -0.18978E-06   -0.38043E-07  6380   0.918E-04    0.185E-04
DAV:   4    -0.164618307506E+04   -0.44870E-08   -0.15234E-07  6380   0.611E-04    0.102E-04
DAV:   5    -0.164618307506E+04   -0.12092E-08   -0.84853E-08  6380   0.463E-04
  22 F= -.16461831E+04 E0= -.16461890E+04  d E =-.115805E-05
