       N       E                     dE             d eps       ncg     rms          rms(c)
DAV:   1     0.244508464791E+04    0.24451E+04   -0.30262E+05 12056   0.144E+03
DAV:   2    -0.119763135356E+04   -0.36427E+04   -0.34889E+04 13892   0.321E+02
DAV:   3    -0.166793900351E+04   -0.47031E+03   -0.44129E+03 18464   0.823E+01
DAV:   4    -0.169298069218E+04   -0.25042E+02   -0.23831E+02 16872   0.180E+01
DAV:   5    -0.169404408485E+04   -0.10634E+01   -0.10461E+01 18768   0.400E+00    0.439E+01
DAV:   6    -0.164500615503E+04    0.49038E+02   -0.17596E+02 18256   0.188E+01    0.243E+01
DAV:   7    -0.162930733727E+04    0.15699E+02   -0.10870E+02 19328   0.176E+01    0.171E+01
DAV:   8    -0.161913089386E+04    0.10176E+02   -0.58734E+01 17776   0.124E+01    0.786E+00
DAV:   9    -0.161556026164E+04    0.35706E+01   -0.20602E+01 16984   0.771E+00    0.240E+00
DAV:  10    -0.161565789216E+04   -0.97631E-01   -0.41970E+00 17512   0.284E+00    0.162E+00
DAV:  11    -0.161562017456E+04    0.37718E-01   -0.53809E-01 15784   0.113E+00    0.112E+00
DAV:  12    -0.161558506770E+04    0.35107E-01   -0.18240E-01 14776   0.664E-01    0.551E-01
DAV:  13    -0.161557681743E+04    0.82503E-02   -0.47753E-02 15632   0.361E-01    0.238E-01
DAV:  14    -0.161557559783E+04    0.12196E-02   -0.14123E-02 16432   0.207E-01    0.114E-01
DAV:  15    -0.161557532096E+04    0.27687E-03   -0.40283E-03 15720   0.104E-01    0.564E-02
DAV:  16    -0.161557533840E+04   -0.17441E-04   -0.10119E-03 15760   0.477E-02    0.334E-02
DAV:  17    -0.161557532229E+04    0.16107E-04   -0.25988E-04 16824   0.267E-02    0.174E-02
DAV:  18    -0.161557530534E+04    0.16949E-04   -0.87719E-05 14656   0.166E-02    0.737E-03
DAV:  19    -0.161557530304E+04    0.23020E-05   -0.21144E-05  7936   0.765E-03
   1 F= -.16155753E+04 E0= -.16155696E+04  d E =-.161558E+04
       N       E                     dE             d eps       ncg     rms          rms(c)
DAV:   1    -0.161758484684E+04   -0.20095E+01   -0.68694E+02 12040   0.377E+01    0.123E+01
DAV:   2    -0.161120207743E+04    0.63828E+01   -0.27952E+01 16960   0.760E+00    0.641E+00
DAV:   3    -0.160940012186E+04    0.18020E+01   -0.12689E+01 18336   0.554E+00    0.443E+00
DAV:   4    -0.160857859913E+04    0.82152E+00   -0.44652E+00 18624   0.369E+00    0.276E+00
DAV:   5    -0.160818402286E+04    0.39458E+00   -0.26631E+00 16760   0.249E+00    0.992E-01
DAV:   6    -0.160816262230E+04    0.21401E-01   -0.55420E-01 16712   0.117E+00    0.628E-01
DAV:   7    -0.160815652957E+04    0.60927E-02   -0.11136E-01 15672   0.526E-01    0.419E-01
DAV:   8    -0.160815655690E+04   -0.27330E-04   -0.33676E-02 16288   0.233E-01    0.207E-01
DAV:   9    -0.160815809118E+04   -0.15343E-02   -0.11657E-02 16072   0.148E-01    0.127E-01
DAV:  10    -0.160815760462E+04    0.48656E-03   -0.31425E-03 16520   0.103E-01    0.753E-02
DAV:  11    -0.160815742324E+04    0.18138E-03   -0.15896E-03 16904   0.542E-02    0.345E-02
DAV:  12    -0.160815747234E+04   -0.49100E-04   -0.58241E-04 16936   0.323E-02    0.254E-02
DAV:  13    -0.160815747359E+04   -0.12558E-05   -0.10486E-04 14656   0.176E-02    0.146E-02
DAV:  14    -0.160815747646E+04   -0.28680E-05   -0.43855E-05 10312   0.931E-03
   2 F= -.16081575E+04 E0= -.16081534E+04  d E =0.741783E+01
       N       E                     dE             d eps       ncg     rms          rms(c)
DAV:   1    -0.162290746340E+04   -0.14750E+02   -0.25336E+02 12040   0.259E+01    0.885E+00
DAV:   2    -0.161925101305E+04    0.36565E+01   -0.73172E+00 14756   0.432E+00    0.422E+00
DAV:   3    -0.161853472276E+04    0.71629E+00   -0.33947E+00 15576   0.301E+00    0.266E+00
DAV:   4    -0.161815334126E+04    0.38138E+00   -0.15065E+00 16352   0.251E+00    0.122E+00
DAV:   5    -0.161807323668E+04    0.80105E-01   -0.70233E-01 15848   0.142E+00    0.419E-01
DAV:   6    -0.161807518797E+04   -0.19513E-02   -0.12727E-01 15392   0.586E-01    0.303E-01
DAV:   7    -0.161807517276E+04    0.15206E-04   -0.23034E-02 15288   0.246E-01    0.204E-01
DAV:   8    -0.161807668302E+04   -0.15103E-02   -0.89064E-03 15736   0.120E-01    0.910E-02
DAV:   9    -0.161807757212E+04   -0.88910E-03   -0.22308E-03 13968   0.693E-02    0.506E-02
DAV:  10    -0.161807768970E+04   -0.11758E-03   -0.68652E-04 15192   0.424E-02    0.286E-02
DAV:  11    -0.161807779291E+04   -0.10320E-03   -0.32991E-04 15808   0.277E-02    0.197E-02
DAV:  12    -0.161807785410E+04   -0.61197E-04   -0.99611E-05 13552   0.145E-02    0.983E-03
DAV:  13    -0.161807785058E+04    0.35242E-05   -0.13861E-05  7584   0.627E-03
   3 F= -.16180779E+04 E0= -.16180772E+04  d E =-.992037E+01
       N       E                     dE             d eps       ncg     rms          rms(c)
DAV:   1    -0.161814726269E+04   -0.69409E-01   -0.11724E+01 12040   0.435E+00    0.553E-01
DAV:   2    -0.161815593905E+04   -0.86764E-02   -0.20274E-01 17192   0.767E-01    0.394E-01
DAV:   3    -0.161814912108E+04    0.68180E-02   -0.48975E-02 18208   0.395E-01    0.276E-01
DAV:   4    -0.161814753656E+04    0.15845E-02   -0.99056E-03 18312   0.164E-01    0.178E-01
DAV:   5    -0.161814669448E+04    0.84209E-03   -0.62553E-03 16448   0.125E-01    0.646E-02
DAV:   6    -0.161814653607E+04    0.15841E-03   -0.17044E-03 16312   0.712E-02    0.384E-02
DAV:   7    -0.161814649726E+04    0.38807E-04   -0.35991E-04 16208   0.295E-02    0.226E-02
DAV:   8    -0.161814649187E+04    0.53875E-05   -0.91677E-05 13920   0.133E-02
   4 F= -.16181465E+04 E0= -.16181468E+04  d E =-.686413E-01
       N       E                     dE             d eps       ncg     rms          rms(c)
DAV:   1    -0.161815856534E+04   -0.12068E-01   -0.19943E+00 12040   0.180E+00    0.207E-01
DAV:   2    -0.161816035766E+04   -0.17923E-02   -0.27580E-02 16432   0.314E-01    0.171E-01
DAV:   3    -0.161815867540E+04    0.16823E-02   -0.80707E-03 18024   0.167E-01    0.110E-01
DAV:   4    -0.161815844727E+04    0.22813E-03   -0.16412E-03 17264   0.640E-02    0.621E-02
DAV:   5    -0.161815837395E+04    0.73322E-04   -0.96798E-04 16184   0.531E-02    0.247E-02
DAV:   6    -0.161815834939E+04    0.24554E-04   -0.26498E-04 15544   0.276E-02    0.133E-02
DAV:   7    -0.161815833998E+04    0.94080E-05   -0.40333E-05  9896   0.105E-02
   5 F= -.16181583E+04 E0= -.16181589E+04  d E =-.118481E-01
       N       E                     dE             d eps       ncg     rms          rms(c)
DAV:   1    -0.161816181505E+04   -0.34657E-02   -0.26253E-01 12172   0.739E-01    0.205E-01
DAV:   2    -0.161816007683E+04    0.17382E-02   -0.66126E-03 16560   0.149E-01    0.114E-01
DAV:   3    -0.161815945761E+04    0.61922E-03   -0.34571E-03 17782   0.107E-01    0.801E-02
DAV:   4    -0.161815904892E+04    0.40869E-03   -0.12096E-03 16672   0.617E-02    0.362E-02
DAV:   5    -0.161815893989E+04    0.10903E-03   -0.54087E-04 15912   0.378E-02    0.149E-02
DAV:   6    -0.161815892326E+04    0.16627E-04   -0.11933E-04 15104   0.196E-02    0.920E-03
DAV:   7    -0.161815892155E+04    0.17173E-05   -0.18579E-05  7472   0.739E-03
   6 F= -.16181589E+04 E0= -.16181599E+04  d E =-.581563E-03
       N       E                     dE             d eps       ncg     rms          rms(c)
DAV:   1    -0.161816322799E+04   -0.43047E-02   -0.19528E-01 12184   0.606E-01    0.131E-01
DAV:   2    -0.161816274113E+04    0.48686E-03   -0.26719E-03 15656   0.883E-02    0.714E-02
DAV:   3    -0.161816263945E+04    0.10167E-03   -0.11095E-03 17492   0.584E-02    0.528E-02
DAV:   4    -0.161816254590E+04    0.93557E-04   -0.49360E-04 16704   0.393E-02    0.202E-02
DAV:   5    -0.161816256351E+04   -0.17614E-04   -0.18462E-04 15440   0.217E-02    0.100E-02
DAV:   6    -0.161816256285E+04    0.65776E-06   -0.32841E-05  9608   0.113E-02
   7 F= -.16181626E+04 E0= -.16181634E+04  d E =-.364131E-02
       N       E                     dE             d eps       ncg     rms          rms(c)
DAV:   1    -0.161816352776E+04   -0.96425E-03   -0.11426E-01 12136   0.431E-01    0.533E-02
DAV:   2    -0.161816360873E+04   -0.80969E-04   -0.16010E-03 16544   0.789E-02    0.445E-02
DAV:   3    -0.161816347816E+04    0.13056E-03   -0.53211E-04 17352   0.436E-02    0.276E-02
DAV:   4    -0.161816345339E+04    0.24776E-04   -0.99314E-05 14848   0.161E-02    0.154E-02
DAV:   5    -0.161816343949E+04    0.13898E-04   -0.47895E-05 11066   0.137E-02    0.575E-03
DAV:   6    -0.161816343704E+04    0.24457E-05   -0.13330E-05  7216   0.788E-03
   8 F= -.16181634E+04 E0= -.16181643E+04  d E =-.874192E-03
       N       E                     dE             d eps       ncg     rms          rms(c)
DAV:   1    -0.161816378014E+04   -0.34065E-03   -0.52611E-02 12196   0.297E-01    0.429E-02
DAV:   2    -0.161816379880E+04   -0.18658E-04   -0.58283E-04 16152   0.427E-02    0.285E-02
DAV:   3    -0.161816377913E+04    0.19669E-04   -0.18504E-04 17540   0.243E-02    0.210E-02
DAV:   4    -0.161816378219E+04   -0.30645E-05   -0.57081E-05 12712   0.126E-02    0.781E-03
DAV:   5    -0.161816378808E+04   -0.58821E-05   -0.16647E-05  8184   0.878E-03
   9 F= -.16181638E+04 E0= -.16181647E+04  d E =-.351031E-03
       N       E                     dE             d eps       ncg     rms          rms(c)
DAV:   1    -0.161816405059E+04   -0.26840E-03   -0.62865E-03 12208   0.116E-01    0.341E-02
DAV:   2    -0.161816397464E+04    0.75957E-04   -0.15262E-04 15912   0.204E-02    0.178E-02
DAV:   3    -0.161816395269E+04    0.21953E-04   -0.68437E-05 13544   0.152E-02    0.123E-02
DAV:   4    -0.161816393094E+04    0.21747E-04   -0.21523E-05  8824   0.102E-02    0.537E-03
DAV:   5    -0.161816392135E+04    0.95886E-05   -0.10745E-05  6472   0.589E-03
  10 F= -.16181639E+04 E0= -.16181649E+04  d E =-.133274E-03
       N       E                     dE             d eps       ncg     rms          rms(c)
DAV:   1    -0.161816409904E+04   -0.16810E-03   -0.20701E-02 12208   0.183E-01    0.198E-02
DAV:   2    -0.161816411683E+04   -0.17794E-04   -0.20383E-04 17048   0.237E-02    0.156E-02
DAV:   3    -0.161816410923E+04    0.75992E-05   -0.35022E-05  9920   0.126E-02    0.115E-02
DAV:   4    -0.161816411236E+04   -0.31208E-05   -0.21936E-05  7176   0.748E-03    0.288E-03
DAV:   5    -0.161816411322E+04   -0.86073E-06   -0.63220E-06  6528   0.570E-03
  11 F= -.16181641E+04 E0= -.16181650E+04  d E =-.191866E-03
       N       E                     dE             d eps       ncg     rms          rms(c)
DAV:   1    -0.161816425672E+04   -0.14436E-03   -0.20784E-02 12196   0.184E-01    0.207E-02
DAV:   2    -0.161816425795E+04   -0.12348E-05   -0.21067E-04 17704   0.237E-02    0.159E-02
DAV:   3    -0.161816424673E+04    0.11221E-04   -0.43755E-05 10770   0.139E-02    0.115E-02
DAV:   4    -0.161816423771E+04    0.90241E-05   -0.16762E-05  7096   0.707E-03    0.450E-03
DAV:   5    -0.161816423452E+04    0.31807E-05   -0.65366E-06  6528   0.560E-03
  12 F= -.16181642E+04 E0= -.16181652E+04  d E =-.121308E-03
       N       E                     dE             d eps       ncg     rms          rms(c)
DAV:   1    -0.161816425123E+04   -0.13522E-04   -0.73493E-04 12208   0.419E-02    0.136E-02
DAV:   2    -0.161816425488E+04   -0.36564E-05   -0.13771E-05  6464   0.629E-03    0.658E-03
DAV:   3    -0.161816426036E+04   -0.54726E-05   -0.66481E-06  6456   0.469E-03    0.324E-03
DAV:   4    -0.161816426443E+04   -0.40718E-05   -0.31338E-06  6344   0.367E-03    0.137E-03
DAV:   5    -0.161816426607E+04   -0.16392E-05   -0.13056E-06  6344   0.242E-03
  13 F= -.16181643E+04 E0= -.16181652E+04  d E =-.315425E-04
       N       E                     dE             d eps       ncg     rms          rms(c)
DAV:   1    -0.161816434960E+04   -0.85169E-04   -0.83362E-03 12208   0.116E-01    0.127E-02
DAV:   2    -0.161816434738E+04    0.22216E-05   -0.68807E-05 14080   0.124E-02    0.928E-03
DAV:   3    -0.161816434449E+04    0.28822E-05   -0.11703E-05  7360   0.657E-03    0.698E-03
DAV:   4    -0.161816433965E+04    0.48436E-05   -0.62353E-06  6440   0.446E-03    0.216E-03
DAV:   5    -0.161816433849E+04    0.11582E-05   -0.24359E-06  6392   0.332E-03
  14 F= -.16181643E+04 E0= -.16181653E+04  d E =-.724243E-04
       N       E                     dE             d eps       ncg     rms          rms(c)
DAV:   1    -0.161816439896E+04   -0.59314E-04   -0.88729E-03 12196   0.120E-01    0.120E-02
DAV:   2    -0.161816440644E+04   -0.74795E-05   -0.73581E-05 14360   0.118E-02    0.909E-03
DAV:   3    -0.161816440669E+04   -0.24262E-06   -0.88569E-06  6866   0.546E-03    0.656E-03
DAV:   4    -0.161816440898E+04   -0.22971E-05   -0.63429E-06  6400   0.435E-03    0.129E-03
DAV:   5    -0.161816440898E+04   -0.11582E-08   -0.16769E-06  6320   0.278E-03
  15 F= -.16181644E+04 E0= -.16181654E+04  d E =-.704929E-04
       N       E                     dE             d eps       ncg     rms          rms(c)
DAV:   1    -0.161816443526E+04   -0.26273E-04   -0.95380E-04 12208   0.416E-02    0.860E-03
DAV:   2    -0.161816442543E+04    0.98315E-05   -0.99383E-06  6272   0.542E-03    0.457E-03
DAV:   3    -0.161816442176E+04    0.36666E-05   -0.41640E-06  6272   0.429E-03    0.291E-03
DAV:   4    -0.161816441815E+04    0.36117E-05   -0.21081E-06  6272   0.326E-03    0.118E-03
DAV:   5    -0.161816441663E+04    0.15159E-05   -0.11713E-06  6272   0.198E-03
  16 F= -.16181644E+04 E0= -.16181654E+04  d E =-.764661E-05
       N       E                     dE             d eps       ncg     rms          rms(c)
DAV:   1    -0.161816444805E+04   -0.29899E-04   -0.29675E-03 12208   0.697E-02    0.848E-03
DAV:   2    -0.161816445189E+04   -0.38489E-05   -0.18119E-05  7792   0.694E-03    0.558E-03
DAV:   3    -0.161816445461E+04   -0.27164E-05   -0.67539E-06  6472   0.402E-03    0.246E-03
DAV:   4    -0.161816445666E+04   -0.20471E-05   -0.33895E-06  6272   0.327E-03    0.111E-03
DAV:   5    -0.161816445706E+04   -0.40324E-06   -0.17751E-06  6272   0.253E-03
  17 F= -.16181645E+04 E0= -.16181654E+04  d E =-.404306E-04
       N       E                     dE             d eps       ncg     rms          rms(c)
DAV:   1    -0.161816448922E+04   -0.32562E-04   -0.33457E-03 12208   0.735E-02    0.772E-03
DAV:   2    -0.161816448775E+04    0.14708E-05   -0.20969E-05  7648   0.745E-03    0.552E-03
DAV:   3    -0.161816448657E+04    0.11825E-05   -0.70659E-06  6432   0.448E-03    0.330E-03
DAV:   4    -0.161816448492E+04    0.16476E-05   -0.41509E-06  6272   0.377E-03    0.768E-04
DAV:   5    -0.161816448505E+04   -0.13342E-06   -0.21563E-06  6272   0.270E-03
  18 F= -.16181645E+04 E0= -.16181655E+04  d E =-.279914E-04
       N       E                     dE             d eps       ncg     rms          rms(c)
DAV:   1    -0.161816449773E+04   -0.12809E-04   -0.11612E-03 12208   0.439E-02    0.621E-03
DAV:   2    -0.161816450131E+04   -0.35849E-05   -0.92324E-06  6368   0.493E-03    0.380E-03
DAV:   3    -0.161816450370E+04   -0.23893E-05   -0.38102E-06  6272   0.316E-03    0.195E-03
DAV:   4    -0.161816450559E+04   -0.18888E-05   -0.19933E-06  6272   0.248E-03    0.917E-04
DAV:   5    -0.161816450621E+04   -0.61770E-06   -0.11097E-06  6272   0.192E-03
  19 F= -.16181645E+04 E0= -.16181655E+04  d E =-.211568E-04
       N       E                     dE             d eps       ncg     rms          rms(c)
DAV:   1    -0.161816452506E+04   -0.19464E-04   -0.10270E-03 12208   0.410E-02    0.525E-03
DAV:   2    -0.161816452197E+04    0.30894E-05   -0.72259E-06  6464   0.441E-03    0.339E-03
DAV:   3    -0.161816452033E+04    0.16380E-05   -0.28067E-06  6272   0.281E-03    0.196E-03
DAV:   4    -0.161816451885E+04    0.14815E-05   -0.15311E-06  6272   0.228E-03    0.824E-04
DAV:   5    -0.161816451842E+04    0.42625E-06   -0.86533E-07  6272   0.169E-03
  20 F= -.16181645E+04 E0= -.16181655E+04  d E =-.122108E-04
       N       E                     dE             d eps       ncg     rms          rms(c)
DAV:   1    -0.161816453600E+04   -0.17158E-04   -0.20624E-03 12208   0.576E-02    0.581E-03
DAV:   2    -0.161816453759E+04   -0.15821E-05   -0.12098E-05  7448   0.567E-03    0.423E-03
DAV:   3    -0.161816453853E+04   -0.94097E-06   -0.46952E-06  6440   0.332E-03    0.127E-03
DAV:   4    -0.161816453915E+04   -0.62477E-06   -0.23042E-06  6272   0.269E-03    0.624E-04
DAV:   5    -0.161816453913E+04    0.22282E-07   -0.12612E-06  6272   0.199E-03
  21 F= -.16181645E+04 E0= -.16181655E+04  d E =-.207093E-04
       N       E                     dE             d eps       ncg     rms          rms(c)
DAV:   1    -0.161816455921E+04   -0.20057E-04   -0.22243E-03 12196   0.603E-02    0.728E-03
DAV:   2    -0.161816455488E+04    0.43318E-05   -0.14797E-05  7000   0.634E-03    0.473E-03
DAV:   3    -0.161816455249E+04    0.23839E-05   -0.54137E-06  6266   0.392E-03    0.268E-03
DAV:   4    -0.161816455038E+04    0.21092E-05   -0.29116E-06  6272   0.323E-03    0.108E-03
DAV:   5    -0.161816454992E+04    0.46847E-06   -0.16385E-06  6272   0.238E-03
  22 F= -.16181645E+04 E0= -.16181655E+04  d E =-.107859E-04
       N       E                     dE             d eps       ncg     rms          rms(c)
DAV:   1    -0.161816455080E+04   -0.41817E-06   -0.76739E-05 11856   0.134E-02    0.448E-03
DAV:   2    -0.161816455383E+04   -0.30271E-05   -0.22189E-06  6272   0.247E-03    0.214E-03
DAV:   3    -0.161816455563E+04   -0.17974E-05   -0.10402E-06  6272   0.195E-03    0.132E-03
DAV:   4    -0.161816455702E+04   -0.13923E-05   -0.50851E-07  6272   0.145E-03    0.581E-04
DAV:   5    -0.161816455785E+04   -0.83233E-06   -0.27295E-07  6272   0.937E-04
  23 F= -.16181646E+04 E0= -.16181655E+04  d E =-.793573E-05
       N       E                     dE             d eps       ncg     rms          rms(c)
DAV:   1    -0.161816457024E+04   -0.13221E-04   -0.13334E-03 12196   0.464E-02    0.455E-03
DAV:   2    -0.161816457032E+04   -0.82950E-07   -0.73013E-06  6272   0.441E-03    0.334E-03
DAV:   3    -0.161816456997E+04    0.35292E-06   -0.27181E-06  6266   0.249E-03    0.986E-04
DAV:   4    -0.161816456995E+04    0.18164E-07   -0.13171E-06  6272   0.199E-03    0.538E-04
DAV:   5    -0.161816457002E+04   -0.67521E-07   -0.70612E-07  6266   0.147E-03
  24 F= -.16181646E+04 E0= -.16181655E+04  d E =-.121683E-04
       N       E                     dE             d eps       ncg     rms          rms(c)
DAV:   1    -0.161816459826E+04   -0.28304E-04   -0.22221E-02 12100   0.189E-01    0.182E-02
DAV:   2    -0.161816461141E+04   -0.13154E-04   -0.18405E-04 17352   0.178E-02    0.140E-02
DAV:   3    -0.161816460802E+04    0.33951E-05   -0.16120E-05  7574   0.665E-03    0.426E-03
DAV:   4    -0.161816460867E+04   -0.65606E-06   -0.58052E-06  6816   0.583E-03    0.233E-03
DAV:   5    -0.161816460821E+04    0.46297E-06   -0.15306E-06  6406   0.321E-03
  25 F= -.16181646E+04 E0= -.16181656E+04  d E =-.381883E-04
       N       E                     dE             d eps       ncg     rms          rms(c)
DAV:   1    -0.161816459801E+04    0.10657E-04   -0.59874E-03 12148   0.988E-02    0.110E-02
DAV:   2    -0.161816459234E+04    0.56705E-05   -0.32360E-05  8296   0.919E-03    0.753E-03
DAV:   3    -0.161816458716E+04    0.51840E-05   -0.97332E-06  6266   0.492E-03    0.313E-03
DAV:   4    -0.161816458478E+04    0.23805E-05   -0.43734E-06  6272   0.398E-03    0.113E-03
DAV:   5    -0.161816458480E+04   -0.24646E-07   -0.20979E-06  6272   0.288E-03
  26 F= -.16181646E+04 E0= -.16181656E+04  d E =0.234042E-04
       N       E                     dE             d eps       ncg     rms          rms(c)
DAV:   1    -0.161816459952E+04   -0.14741E-04   -0.49319E-03 12148   0.894E-02    0.868E-03
DAV:   2    -0.161816460194E+04   -0.24207E-05   -0.22963E-05  7008   0.796E-03    0.625E-03
DAV:   3    -0.161816460310E+04   -0.11621E-05   -0.73005E-06  6242   0.405E-03    0.178E-03
DAV:   4    -0.161816460400E+04   -0.90183E-06   -0.30719E-06  6272   0.311E-03    0.929E-04
DAV:   5    -0.161816460393E+04    0.76272E-07   -0.14923E-06  6272   0.226E-03
  27 F= -.16181646E+04 E0= -.16181656E+04  d E =-.191248E-04
       N       E                     dE             d eps       ncg     rms          rms(c)
DAV:   1    -0.161816460946E+04   -0.54581E-05   -0.14852E-03 12196   0.488E-02    0.480E-03
DAV:   2    -0.161816460969E+04   -0.22885E-06   -0.93058E-06  6272   0.495E-03    0.354E-03
DAV:   3    -0.161816460942E+04    0.26925E-06   -0.36289E-06  6266   0.294E-03    0.105E-03
DAV:   4    -0.161816460945E+04   -0.23535E-07   -0.18190E-06  6272   0.236E-03    0.522E-04
DAV:   5    -0.161816460955E+04   -0.10539E-06   -0.10145E-06  6272   0.180E-03
  28 F= -.16181646E+04 E0= -.16181656E+04  d E =-.562290E-05
       N       E                     dE             d eps       ncg     rms          rms(c)
DAV:   1    -0.161816460489E+04    0.45524E-05   -0.18136E-04 11992   0.185E-02    0.405E-03
DAV:   2    -0.161816460761E+04   -0.27121E-05   -0.16521E-06  6272   0.227E-03    0.210E-03
DAV:   3    -0.161816460917E+04   -0.15599E-05   -0.68400E-07  6272   0.165E-03    0.124E-03
DAV:   4    -0.161816461047E+04   -0.13065E-05   -0.31075E-07  6272   0.128E-03    0.539E-04
DAV:   5    -0.161816461116E+04   -0.69091E-06   -0.15225E-07  6272   0.769E-04
  29 F= -.16181646E+04 E0= -.16181656E+04  d E =-.161169E-05
       N       E                     dE             d eps       ncg     rms          rms(c)
DAV:   1    -0.161816461755E+04   -0.70819E-05   -0.47706E-04 12186   0.281E-02    0.353E-03
DAV:   2    -0.161816461529E+04    0.22689E-05   -0.28289E-06  6272   0.280E-03    0.222E-03
DAV:   3    -0.161816461406E+04    0.12291E-05   -0.97444E-07  6266   0.165E-03    0.127E-03
DAV:   4    -0.161816461305E+04    0.10042E-05   -0.49676E-07  6272   0.133E-03    0.566E-04
DAV:   5    -0.161816461268E+04    0.36824E-06   -0.26349E-07  6272   0.955E-04
  30 F= -.16181646E+04 E0= -.16181656E+04  d E =-.152050E-05
       N       E                     dE             d eps       ncg     rms          rms(c)
DAV:   1    -0.161816461444E+04   -0.13842E-05   -0.24714E-04 12028   0.199E-02    0.202E-03
DAV:   2    -0.161816461456E+04   -0.12563E-06   -0.15976E-06  6272   0.206E-03    0.148E-03
DAV:   3    -0.161816461461E+04   -0.50692E-07   -0.61941E-07  6272   0.124E-03    0.502E-04
DAV:   4    -0.161816461466E+04   -0.48243E-07   -0.32118E-07  6272   0.102E-03    0.249E-04
DAV:   5    -0.161816461467E+04   -0.63483E-08   -0.17698E-07  6272   0.728E-04
  31 F= -.16181646E+04 E0= -.16181656E+04  d E =-.198338E-05
       N       E                     dE             d eps       ncg     rms          rms(c)
DAV:   1    -0.161816462026E+04   -0.55961E-05   -0.27567E-03 12148   0.668E-02    0.678E-03
DAV:   2    -0.161816461861E+04    0.16500E-05   -0.15238E-05  7136   0.641E-03    0.482E-03
DAV:   3    -0.161816461676E+04    0.18454E-05   -0.52268E-06  6392   0.353E-03    0.198E-03
DAV:   4    -0.161816461581E+04    0.94832E-06   -0.26561E-06  6272   0.290E-03    0.715E-04
DAV:   5    -0.161816461595E+04   -0.13314E-06   -0.14029E-06  6266   0.221E-03
  32 F= -.16181646E+04 E0= -.16181656E+04  d E =-.127915E-05
