       N       E                     dE             d eps       ncg     rms          rms(c)
DAV:   1     0.272373801937E+04    0.27237E+04   -0.31574E+05 12460   0.145E+03
DAV:   2    -0.119192931129E+04   -0.39157E+04   -0.37476E+04 14290   0.344E+02
DAV:   3    -0.170490038128E+04   -0.51297E+03   -0.48860E+03 19176   0.832E+01
DAV:   4    -0.173042225900E+04   -0.25522E+02   -0.24795E+02 17488   0.185E+01
DAV:   5    -0.173149477216E+04   -0.10725E+01   -0.10555E+01 19536   0.384E+00    0.468E+01
DAV:   6    -0.167203721120E+04    0.59458E+02   -0.14032E+02 18160   0.167E+01    0.246E+01
DAV:   7    -0.165679177426E+04    0.15245E+02   -0.88478E+01 18640   0.161E+01    0.156E+01
DAV:   8    -0.164546496433E+04    0.11327E+02   -0.49333E+01 17824   0.123E+01    0.433E+00
DAV:   9    -0.164508714623E+04    0.37782E+00   -0.13693E+01 17728   0.582E+00    0.214E+00
DAV:  10    -0.164508235840E+04    0.47878E-02   -0.17619E+00 15664   0.196E+00    0.151E+00
DAV:  11    -0.164502897644E+04    0.53382E-01   -0.40691E-01 16832   0.865E-01    0.687E-01
DAV:  12    -0.164501701522E+04    0.11961E-01   -0.78686E-02 16904   0.474E-01    0.326E-01
DAV:  13    -0.164501353699E+04    0.34782E-02   -0.20032E-02 16712   0.284E-01    0.140E-01
DAV:  14    -0.164501346749E+04    0.69504E-04   -0.73958E-03 16632   0.115E-01    0.588E-02
DAV:  15    -0.164501349815E+04   -0.30659E-04   -0.98156E-04 15320   0.518E-02    0.295E-02
DAV:  16    -0.164501350820E+04   -0.10054E-04   -0.24336E-04 16424   0.273E-02    0.184E-02
DAV:  17    -0.164501349820E+04    0.10006E-04   -0.80814E-05 14784   0.162E-02    0.908E-03
DAV:  18    -0.164501349219E+04    0.60047E-05   -0.27561E-05  8736   0.850E-03
   1 F= -.16450135E+04 E0= -.16450157E+04  d E =-.164501E+04
       N       E                     dE             d eps       ncg     rms          rms(c)
DAV:   1    -0.164569964934E+04   -0.68615E+00   -0.16135E+02 12460   0.159E+01    0.250E+00
DAV:   2    -0.164563951755E+04    0.60132E-01   -0.31369E+00 16952   0.264E+00    0.143E+00
DAV:   3    -0.164557374456E+04    0.65773E-01   -0.60151E-01 17168   0.125E+00    0.101E+00
DAV:   4    -0.164554649894E+04    0.27246E-01   -0.13966E-01 17472   0.701E-01    0.550E-01
DAV:   5    -0.164553729883E+04    0.92001E-02   -0.74177E-02 15608   0.462E-01    0.170E-01
DAV:   6    -0.164553752421E+04   -0.22538E-03   -0.12459E-02 16176   0.170E-01    0.121E-01
DAV:   7    -0.164553735632E+04    0.16790E-03   -0.23409E-03 15704   0.718E-02    0.713E-02
DAV:   8    -0.164553739142E+04   -0.35108E-04   -0.11331E-03 15560   0.505E-02    0.323E-02
DAV:   9    -0.164553735498E+04    0.36440E-04   -0.19654E-04 15648   0.274E-02    0.157E-02
DAV:  10    -0.164553734600E+04    0.89792E-05   -0.82587E-05 14640   0.114E-02
   2 F= -.16455373E+04 E0= -.16455461E+04  d E =-.523854E+00
       N       E                     dE             d eps       ncg     rms          rms(c)
DAV:   1    -0.164579777481E+04   -0.26042E+00   -0.16240E+01 12460   0.622E+00    0.202E+00
DAV:   2    -0.164560794497E+04    0.18983E+00   -0.30124E-01 14200   0.822E-01    0.990E-01
DAV:   3    -0.164555787195E+04    0.50073E-01   -0.13545E-01 14681   0.574E-01    0.370E-01
DAV:   4    -0.164555076850E+04    0.71034E-02   -0.41654E-02 15408   0.400E-01    0.113E-01
DAV:   5    -0.164555063770E+04    0.13080E-03   -0.11246E-02 15473   0.195E-01    0.621E-02
DAV:   6    -0.164555092265E+04   -0.28495E-03   -0.20732E-03 16848   0.637E-02    0.441E-02
DAV:   7    -0.164555103765E+04   -0.11500E-03   -0.33794E-04 16560   0.264E-02    0.241E-02
DAV:   8    -0.164555111936E+04   -0.81710E-04   -0.11475E-04 14672   0.169E-02    0.120E-02
DAV:   9    -0.164555114381E+04   -0.24448E-04   -0.37586E-05 10032   0.969E-03    0.540E-03
DAV:  10    -0.164555115496E+04   -0.11150E-04   -0.18358E-05  7544   0.593E-03    0.349E-03
DAV:  11    -0.164555115435E+04    0.61051E-06   -0.45239E-06  7288   0.460E-03
   3 F= -.16455512E+04 E0= -.16455536E+04  d E =-.138083E-01
       N       E                     dE             d eps       ncg     rms          rms(c)
DAV:   1    -0.164579896275E+04   -0.24781E+00   -0.72573E+00 12460   0.387E+00    0.108E+00
DAV:   2    -0.164574883723E+04    0.50126E-01   -0.11807E-01 15816   0.594E-01    0.570E-01
DAV:   3    -0.164573584838E+04    0.12989E-01   -0.55955E-02 16222   0.409E-01    0.354E-01
DAV:   4    -0.164572799628E+04    0.78521E-02   -0.30015E-02 16096   0.339E-01    0.745E-02
DAV:   5    -0.164572800285E+04   -0.65710E-05   -0.67611E-03 15112   0.138E-01    0.511E-02
DAV:   6    -0.164572808035E+04   -0.77499E-04   -0.97372E-04 16384   0.455E-02    0.347E-02
DAV:   7    -0.164572810228E+04   -0.21928E-04   -0.16675E-04 15704   0.189E-02    0.205E-02
DAV:   8    -0.164572811366E+04   -0.11386E-04   -0.99739E-05 14544   0.142E-02    0.103E-02
DAV:   9    -0.164572809939E+04    0.14273E-04   -0.17494E-05  8120   0.701E-03    0.503E-03
DAV:  10    -0.164572809618E+04    0.32140E-05   -0.11493E-05  7424   0.469E-03
   4 F= -.16457281E+04 E0= -.16457345E+04  d E =-.176942E+00
       N       E                     dE             d eps       ncg     rms          rms(c)
DAV:   1    -0.164573378752E+04   -0.56881E-02   -0.95158E-01 12530   0.122E+00    0.144E-01
DAV:   2    -0.164573423244E+04   -0.44492E-03   -0.12053E-02 16224   0.198E-01    0.965E-02
DAV:   3    -0.164573395462E+04    0.27782E-03   -0.24956E-03 17841   0.876E-02    0.722E-02
DAV:   4    -0.164573383472E+04    0.11990E-03   -0.67057E-04 16976   0.442E-02    0.285E-02
DAV:   5    -0.164573383218E+04    0.25339E-05   -0.23460E-04 15072   0.236E-02    0.106E-02
DAV:   6    -0.164573382750E+04    0.46832E-05   -0.26700E-05  9096   0.921E-03
   5 F= -.16457338E+04 E0= -.16457402E+04  d E =-.573132E-02
       N       E                     dE             d eps       ncg     rms          rms(c)
DAV:   1    -0.164573504911E+04   -0.12169E-02   -0.21747E-01 12550   0.584E-01    0.681E-02
DAV:   2    -0.164573513791E+04   -0.88801E-04   -0.26082E-03 16064   0.102E-01    0.471E-02
DAV:   3    -0.164573505240E+04    0.85506E-04   -0.57705E-04 18820   0.431E-02    0.355E-02
DAV:   4    -0.164573500227E+04    0.50131E-04   -0.17872E-04 16432   0.226E-02    0.113E-02
DAV:   5    -0.164573499519E+04    0.70780E-05   -0.41442E-05 10888   0.109E-02
   6 F= -.16457350E+04 E0= -.16457414E+04  d E =-.116769E-02
       N       E                     dE             d eps       ncg     rms          rms(c)
DAV:   1    -0.164573515004E+04   -0.14777E-03   -0.37490E-02 12580   0.264E-01    0.616E-02
DAV:   2    -0.164573506460E+04    0.85435E-04   -0.43104E-04 15360   0.340E-02    0.328E-02
DAV:   3    -0.164573505865E+04    0.59509E-05   -0.16063E-04 15696   0.201E-02    0.147E-02
DAV:   4    -0.164573506657E+04   -0.79206E-05   -0.63470E-05 14656   0.167E-02    0.398E-03
DAV:   5    -0.164573507133E+04   -0.47622E-05   -0.13416E-05  7384   0.663E-03
   7 F= -.16457351E+04 E0= -.16457413E+04  d E =-.761402E-04
       N       E                     dE             d eps       ncg     rms          rms(c)
DAV:   1    -0.164573560920E+04   -0.54263E-03   -0.13291E-02 12580   0.167E-01    0.490E-02
DAV:   2    -0.164573546377E+04    0.14543E-03   -0.23097E-04 15424   0.275E-02    0.254E-02
DAV:   3    -0.164573541943E+04    0.44343E-04   -0.10850E-04 15752   0.191E-02    0.160E-02
DAV:   4    -0.164573538037E+04    0.39059E-04   -0.54343E-05 14072   0.150E-02    0.323E-03
DAV:   5    -0.164573537525E+04    0.51225E-05   -0.11733E-05  6992   0.601E-03
   8 F= -.16457354E+04 E0= -.16457418E+04  d E =-.303912E-03
       N       E                     dE             d eps       ncg     rms          rms(c)
DAV:   1    -0.164573544955E+04   -0.69185E-04   -0.10619E-02 12580   0.129E-01    0.152E-02
DAV:   2    -0.164573545722E+04   -0.76687E-05   -0.10606E-04 15360   0.199E-02    0.106E-02
DAV:   3    -0.164573545493E+04    0.22900E-05   -0.16249E-05  8944   0.835E-03    0.793E-03
DAV:   4    -0.164573545730E+04   -0.23659E-05   -0.12476E-05  7000   0.532E-03    0.146E-03
DAV:   5    -0.164573545753E+04   -0.23240E-06   -0.30370E-06  6896   0.341E-03
   9 F= -.16457355E+04 E0= -.16457419E+04  d E =-.822842E-04
       N       E                     dE             d eps       ncg     rms          rms(c)
DAV:   1    -0.164573549603E+04   -0.38735E-04   -0.49333E-03 12580   0.890E-02    0.128E-02
DAV:   2    -0.164573548625E+04    0.97836E-05   -0.49065E-05 12216   0.141E-02    0.805E-03
DAV:   3    -0.164573548168E+04    0.45682E-05   -0.12074E-05  8040   0.780E-03    0.571E-03
DAV:   4    -0.164573547480E+04    0.68793E-05   -0.72620E-06  6824   0.443E-03    0.132E-03
DAV:   5    -0.164573547426E+04    0.54140E-06   -0.23769E-06  6696   0.309E-03
  10 F= -.16457355E+04 E0= -.16457419E+04  d E =-.167306E-04
       N       E                     dE             d eps       ncg     rms          rms(c)
DAV:   1    -0.164573548060E+04   -0.57946E-05   -0.39901E-04 12660   0.302E-02    0.987E-03
DAV:   2    -0.164573548504E+04   -0.44426E-05   -0.63843E-06  6680   0.398E-03    0.494E-03
DAV:   3    -0.164573549072E+04   -0.56855E-05   -0.37903E-06  6630   0.287E-03    0.151E-03
DAV:   4    -0.164573549319E+04   -0.24637E-05   -0.12730E-06  6650   0.199E-03    0.544E-04
DAV:   5    -0.164573549393E+04   -0.73942E-06   -0.48146E-07  6650   0.129E-03
  11 F= -.16457355E+04 E0= -.16457419E+04  d E =-.196672E-04
       N       E                     dE             d eps       ncg     rms          rms(c)
DAV:   1    -0.164573551092E+04   -0.17730E-04   -0.15071E-03 12588   0.488E-02    0.594E-03
DAV:   2    -0.164573550819E+04    0.27266E-05   -0.10181E-05  6841   0.614E-03    0.396E-03
DAV:   3    -0.164573550702E+04    0.11686E-05   -0.28031E-06  6777   0.371E-03    0.281E-03
DAV:   4    -0.164573550451E+04    0.25147E-05   -0.20737E-06  6625   0.260E-03    0.506E-04
DAV:   5    -0.164573550463E+04   -0.11703E-06   -0.86600E-07  6596   0.184E-03
  12 F= -.16457355E+04 E0= -.16457419E+04  d E =-.106982E-04
       N       E                     dE             d eps       ncg     rms          rms(c)
DAV:   1    -0.164573551135E+04   -0.68422E-05   -0.11473E-03 12580   0.423E-02    0.476E-03
DAV:   2    -0.164573551315E+04   -0.17960E-05   -0.74519E-06  6713   0.483E-03    0.335E-03
DAV:   3    -0.164573551402E+04   -0.86825E-06   -0.24819E-06  6521   0.295E-03    0.199E-03
DAV:   4    -0.164573551540E+04   -0.13889E-05   -0.16361E-06  6506   0.236E-03    0.407E-04
DAV:   5    -0.164573551527E+04    0.13828E-06   -0.79956E-07  6506   0.167E-03
  13 F= -.16457355E+04 E0= -.16457419E+04  d E =-.106401E-04
       N       E                     dE             d eps       ncg     rms          rms(c)
DAV:   1    -0.164573552062E+04   -0.52135E-05   -0.88837E-05 12340   0.133E-02    0.369E-03
DAV:   2    -0.164573551678E+04    0.38360E-05   -0.14305E-06  6474   0.199E-03    0.189E-03
DAV:   3    -0.164573551448E+04    0.22995E-05   -0.71987E-07  6458   0.164E-03    0.840E-04
DAV:   4    -0.164573551324E+04    0.12417E-05   -0.37260E-07  6458   0.131E-03    0.256E-04
DAV:   5    -0.164573551294E+04    0.30244E-06   -0.19295E-07  6458   0.796E-04
  14 F= -.16457355E+04 E0= -.16457419E+04  d E =0.232794E-05
       N       E                     dE             d eps       ncg     rms          rms(c)
DAV:   1    -0.164573551614E+04   -0.29007E-05   -0.42837E-04 12506   0.260E-02    0.318E-03
DAV:   2    -0.164573551766E+04   -0.15212E-05   -0.26479E-06  6434   0.275E-03    0.214E-03
DAV:   3    -0.164573551909E+04   -0.14301E-05   -0.10352E-06  6421   0.164E-03    0.620E-04
DAV:   4    -0.164573551959E+04   -0.49814E-06   -0.46533E-07  6410   0.130E-03    0.248E-04
DAV:   5    -0.164573551956E+04    0.30939E-07   -0.25546E-07  6405   0.908E-04
  15 F= -.16457355E+04 E0= -.16457419E+04  d E =-.662161E-05
       N       E                     dE             d eps       ncg     rms          rms(c)
DAV:   1    -0.164573552399E+04   -0.44018E-05   -0.51976E-04 12570   0.285E-02    0.308E-03
DAV:   2    -0.164573552339E+04    0.60198E-06   -0.31730E-06  6410   0.303E-03    0.220E-03
DAV:   3    -0.164573552286E+04    0.52795E-06   -0.11122E-06  6410   0.177E-03    0.101E-03
DAV:   4    -0.164573552241E+04    0.45099E-06   -0.63181E-07  6410   0.146E-03    0.268E-04
DAV:   5    -0.164573552254E+04   -0.12643E-06   -0.33149E-07  6410   0.104E-03
  16 F= -.16457355E+04 E0= -.16457419E+04  d E =-.297822E-05
       N       E                     dE             d eps       ncg     rms          rms(c)
DAV:   1    -0.164573552162E+04    0.78807E-06   -0.76345E-05 12150   0.117E-02    0.261E-03
DAV:   2    -0.164573552366E+04   -0.20351E-05   -0.98149E-07  6410   0.159E-03    0.140E-03
DAV:   3    -0.164573552527E+04   -0.16110E-05   -0.45399E-07  6395   0.107E-03    0.507E-04
DAV:   4    -0.164573552600E+04   -0.72665E-06   -0.20224E-07  6395   0.786E-04    0.202E-04
DAV:   5    -0.164573552616E+04   -0.16767E-06   -0.10145E-07  6395   0.551E-04
  17 F= -.16457355E+04 E0= -.16457419E+04  d E =-.362590E-05
       N       E                     dE             d eps       ncg     rms          rms(c)
DAV:   1    -0.164573552969E+04   -0.36933E-05   -0.13805E-04 12312   0.149E-02    0.219E-03
DAV:   2    -0.164573552816E+04    0.15253E-05   -0.10073E-06  6395   0.169E-03    0.135E-03
DAV:   3    -0.164573552711E+04    0.10518E-05   -0.38899E-07  6390   0.104E-03    0.597E-04
DAV:   4    -0.164573552647E+04    0.64620E-06   -0.19385E-07  6380   0.829E-04    0.194E-04
DAV:   5    -0.164573552643E+04    0.34189E-07   -0.10020E-07  6380   0.577E-04
  18 F= -.16457355E+04 E0= -.16457419E+04  d E =-.268192E-06
       N       E                     dE             d eps       ncg     rms          rms(c)
DAV:   1    -0.164573552793E+04   -0.14615E-05   -0.22010E-04 12344   0.185E-02    0.197E-03
DAV:   2    -0.164573552827E+04   -0.34086E-06   -0.13757E-06  6380   0.197E-03    0.142E-03
DAV:   3    -0.164573552866E+04   -0.39333E-06   -0.57317E-07  6380   0.112E-03    0.236E-04
DAV:   4    -0.164573552866E+04    0.20150E-08   -0.22573E-07  6380   0.758E-04    0.132E-04
DAV:   5    -0.164573552866E+04    0.36980E-08   -0.12671E-07  6380   0.570E-04
  19 F= -.16457355E+04 E0= -.16457419E+04  d E =-.222411E-05
       N       E                     dE             d eps       ncg     rms          rms(c)
DAV:   1    -0.164573553177E+04   -0.31091E-05   -0.26375E-04 12424   0.205E-02    0.275E-03
DAV:   2    -0.164573552995E+04    0.18152E-05   -0.17745E-06  6380   0.225E-03    0.174E-03
DAV:   3    -0.164573552859E+04    0.13625E-05   -0.67888E-07  6380   0.134E-03    0.699E-04
DAV:   4    -0.164573552790E+04    0.69196E-06   -0.32844E-07  6380   0.107E-03    0.251E-04
DAV:   5    -0.164573552789E+04    0.12141E-07   -0.17245E-07  6380   0.760E-04
  20 F= -.16457355E+04 E0= -.16457419E+04  d E =0.768946E-06
       N       E                     dE             d eps       ncg     rms          rms(c)
DAV:   1    -0.164573552667E+04    0.12263E-05   -0.11108E-05  6404   0.532E-03    0.158E-03
DAV:   2    -0.164573552818E+04   -0.15043E-05   -0.59318E-07  6404   0.167E-03    0.835E-04
DAV:   3    -0.164573552939E+04   -0.12092E-05   -0.82851E-08  6388   0.547E-04    0.375E-04
DAV:   4    -0.164573552996E+04   -0.57768E-06   -0.44295E-08  6380   0.509E-04    0.102E-04
DAV:   5    -0.164573553013E+04   -0.16168E-06   -0.22868E-08  6380   0.240E-04
  21 F= -.16457355E+04 E0= -.16457419E+04  d E =-.223872E-05
       N       E                     dE             d eps       ncg     rms          rms(c)
DAV:   1    -0.164573553114E+04   -0.11714E-05   -0.11539E-04 12312   0.134E-02    0.137E-03
DAV:   2    -0.164573553108E+04    0.58943E-07   -0.68099E-07  6380   0.137E-03    0.993E-04
DAV:   3    -0.164573553094E+04    0.14015E-06   -0.25599E-07  6380   0.737E-04    0.145E-04
DAV:   4    -0.164573553094E+04    0.10564E-08   -0.10025E-07  6380   0.500E-04    0.112E-04
DAV:   5    -0.164573553095E+04   -0.12996E-07   -0.55140E-08  6380   0.376E-04
  22 F= -.16457355E+04 E0= -.16457419E+04  d E =-.822569E-06
       N       E                     dE             d eps       ncg     rms          rms(c)
DAV:   1    -0.164573553220E+04   -0.12653E-05   -0.10229E-03 12560   0.399E-02    0.408E-03
DAV:   2    -0.164573553286E+04   -0.66030E-06   -0.55197E-06  6380   0.397E-03    0.297E-03
DAV:   3    -0.164573553335E+04   -0.49142E-06   -0.22289E-06  6380   0.216E-03    0.445E-04
DAV:   4    -0.164573553340E+04   -0.43168E-07   -0.81949E-07  6380   0.137E-03    0.246E-04
DAV:   5    -0.164573553342E+04   -0.22669E-07   -0.43937E-07  6380   0.104E-03
  23 F= -.16457355E+04 E0= -.16457419E+04  d E =-.246984E-05
