       N       E                     dE             d eps       ncg     rms          rms(c)
DAV:   1     0.270984886569E+04    0.27098E+04   -0.31574E+05 12492   0.145E+03
DAV:   2    -0.119211087086E+04   -0.39020E+04   -0.37313E+04 14282   0.343E+02
DAV:   3    -0.170301195113E+04   -0.51090E+03   -0.48609E+03 19072   0.831E+01
DAV:   4    -0.172836304088E+04   -0.25351E+02   -0.24640E+02 17424   0.185E+01
DAV:   5    -0.172942702225E+04   -0.10640E+01   -0.10481E+01 19616   0.387E+00    0.464E+01
DAV:   6    -0.166972761378E+04    0.59699E+02   -0.11092E+02 17840   0.137E+01    0.238E+01
DAV:   7    -0.165191310645E+04    0.17815E+02   -0.67088E+01 16704   0.127E+01    0.115E+01
DAV:   8    -0.164537134485E+04    0.65418E+01   -0.27841E+01 16728   0.104E+01    0.342E+00
DAV:   9    -0.164513504844E+04    0.23630E+00   -0.79886E+00 17632   0.460E+00    0.180E+00
DAV:  10    -0.164512833634E+04    0.67121E-02   -0.11150E+00 15776   0.157E+00    0.125E+00
DAV:  11    -0.164509749519E+04    0.30841E-01   -0.35184E-01 16744   0.769E-01    0.585E-01
DAV:  12    -0.164508722649E+04    0.10269E-01   -0.47387E-02 17096   0.324E-01    0.263E-01
DAV:  13    -0.164508531907E+04    0.19074E-02   -0.13935E-02 17312   0.165E-01    0.861E-02
DAV:  14    -0.164508531789E+04    0.11738E-05   -0.28339E-03 15368   0.854E-02    0.399E-02
DAV:  15    -0.164508533584E+04   -0.17948E-04   -0.60305E-04 15184   0.422E-02    0.203E-02
DAV:  16    -0.164508531947E+04    0.16375E-04   -0.13266E-04 15824   0.187E-02    0.108E-02
DAV:  17    -0.164508530713E+04    0.12341E-04   -0.28777E-05  9184   0.951E-03    0.496E-03
DAV:  18    -0.164508529811E+04    0.90187E-05   -0.12812E-05  8208   0.523E-03
   1 F= -.16450853E+04 E0= -.16450896E+04  d E =-.164509E+04
       N       E                     dE             d eps       ncg     rms          rms(c)
DAV:   1    -0.164561536399E+04   -0.53006E+00   -0.15444E+02 12460   0.157E+01    0.269E+00
DAV:   2    -0.164550258074E+04    0.11278E+00   -0.30176E+00 17312   0.241E+00    0.145E+00
DAV:   3    -0.164544492135E+04    0.57659E-01   -0.46317E-01 16560   0.105E+00    0.947E-01
DAV:   4    -0.164541751238E+04    0.27409E-01   -0.13159E-01 16480   0.687E-01    0.407E-01
DAV:   5    -0.164541269670E+04    0.48157E-02   -0.51837E-02 15776   0.425E-01    0.168E-01
DAV:   6    -0.164541291256E+04   -0.21586E-03   -0.10922E-02 16216   0.167E-01    0.120E-01
DAV:   7    -0.164541285546E+04    0.57103E-04   -0.25834E-03 16192   0.673E-02    0.628E-02
DAV:   8    -0.164541290329E+04   -0.47828E-04   -0.59393E-04 15376   0.363E-02    0.241E-02
DAV:   9    -0.164541287941E+04    0.23877E-04   -0.13260E-04 15584   0.200E-02    0.119E-02
DAV:  10    -0.164541287451E+04    0.48963E-05   -0.55609E-05 12728   0.107E-02
   2 F= -.16454129E+04 E0= -.16454228E+04  d E =-.327576E+00
       N       E                     dE             d eps       ncg     rms          rms(c)
DAV:   1    -0.164582510338E+04   -0.41222E+00   -0.16780E+01 12460   0.642E+00    0.217E+00
DAV:   2    -0.164560204295E+04    0.22306E+00   -0.33064E-01 13360   0.844E-01    0.104E+00
DAV:   3    -0.164554409117E+04    0.57952E-01   -0.15054E-01 14454   0.588E-01    0.310E-01
DAV:   4    -0.164553971172E+04    0.43795E-02   -0.32176E-02 15816   0.310E-01    0.974E-02
DAV:   5    -0.164553966794E+04    0.43784E-04   -0.68635E-03 15838   0.159E-01    0.555E-02
DAV:   6    -0.164553989863E+04   -0.23069E-03   -0.14622E-03 16304   0.599E-02    0.365E-02
DAV:   7    -0.164554004817E+04   -0.14954E-03   -0.34318E-04 16280   0.258E-02    0.209E-02
DAV:   8    -0.164554011974E+04   -0.71569E-04   -0.87370E-05 13944   0.133E-02    0.954E-03
DAV:   9    -0.164554014631E+04   -0.26568E-04   -0.27995E-05  8824   0.812E-03    0.380E-03
DAV:  10    -0.164554015154E+04   -0.52336E-05   -0.89688E-06  7480   0.489E-03
   3 F= -.16455402E+04 E0= -.16455450E+04  d E =-.127277E+00
       N       E                     dE             d eps       ncg     rms          rms(c)
DAV:   1    -0.164571984406E+04   -0.17970E+00   -0.59989E+00 12460   0.347E+00    0.933E-01
DAV:   2    -0.164568415318E+04    0.35691E-01   -0.91435E-02 16000   0.458E-01    0.482E-01
DAV:   3    -0.164567393703E+04    0.10216E-01   -0.37027E-02 16043   0.314E-01    0.239E-01
DAV:   4    -0.164567007574E+04    0.38613E-02   -0.15792E-02 16072   0.259E-01    0.612E-02
DAV:   5    -0.164567011444E+04   -0.38702E-04   -0.41588E-03 15795   0.107E-01    0.435E-02
DAV:   6    -0.164567015603E+04   -0.41582E-04   -0.59793E-04 15680   0.371E-02    0.282E-02
DAV:   7    -0.164567018179E+04   -0.25766E-04   -0.16581E-04 16640   0.162E-02    0.140E-02
DAV:   8    -0.164567018106E+04    0.73687E-06   -0.31577E-05  9640   0.931E-03
   4 F= -.16456702E+04 E0= -.16456771E+04  d E =-.130030E+00
       N       E                     dE             d eps       ncg     rms          rms(c)
DAV:   1    -0.164567250777E+04   -0.23260E-02   -0.53548E-01 12555   0.912E-01    0.117E-01
DAV:   2    -0.164567280019E+04   -0.29242E-03   -0.87395E-03 17304   0.141E-01    0.713E-02
DAV:   3    -0.164567271671E+04    0.83484E-04   -0.12307E-03 17291   0.592E-02    0.519E-02
DAV:   4    -0.164567266868E+04    0.48029E-04   -0.30033E-04 17680   0.330E-02    0.273E-02
DAV:   5    -0.164567266009E+04    0.85865E-05   -0.15057E-04 14840   0.189E-02    0.734E-03
DAV:   6    -0.164567265870E+04    0.13983E-05   -0.17101E-05  8248   0.670E-03
   5 F= -.16456727E+04 E0= -.16456796E+04  d E =-.247764E-02
       N       E                     dE             d eps       ncg     rms          rms(c)
DAV:   1    -0.164567307409E+04   -0.41400E-03   -0.59413E-02 12640   0.306E-01    0.435E-02
DAV:   2    -0.164567310010E+04   -0.26008E-04   -0.89305E-04 17216   0.483E-02    0.258E-02
DAV:   3    -0.164567309204E+04    0.80562E-05   -0.15137E-04 16755   0.220E-02    0.187E-02
DAV:   4    -0.164567309120E+04    0.83946E-06   -0.34519E-05 10136   0.120E-02    0.857E-03
DAV:   5    -0.164567309672E+04   -0.55141E-05   -0.16570E-05  7515   0.689E-03
   6 F= -.16456731E+04 E0= -.16456800E+04  d E =-.438022E-03
       N       E                     dE             d eps       ncg     rms          rms(c)
DAV:   1    -0.164567327578E+04   -0.18458E-03   -0.23696E-02 12608   0.195E-01    0.275E-02
DAV:   2    -0.164567325515E+04    0.20627E-04   -0.26371E-04 16416   0.300E-02    0.173E-02
DAV:   3    -0.164567324089E+04    0.14259E-04   -0.55811E-05 12856   0.143E-02    0.126E-02
DAV:   4    -0.164567322328E+04    0.17615E-04   -0.19887E-05  7664   0.831E-03    0.317E-03
DAV:   5    -0.164567322130E+04    0.19817E-05   -0.61651E-06  7016   0.463E-03
   7 F= -.16456732E+04 E0= -.16456801E+04  d E =-.124579E-03
       N       E                     dE             d eps       ncg     rms          rms(c)
DAV:   1    -0.164567327395E+04   -0.50675E-04   -0.31865E-03 12698   0.790E-02    0.211E-02
DAV:   2    -0.164567327402E+04   -0.62391E-07   -0.33493E-05  9016   0.959E-03    0.111E-02
DAV:   3    -0.164567328422E+04   -0.10206E-04   -0.20182E-05  7121   0.771E-03    0.313E-03
DAV:   4    -0.164567328808E+04   -0.38537E-05   -0.66184E-06  6920   0.633E-03    0.135E-03
DAV:   5    -0.164567328985E+04   -0.17701E-05   -0.26956E-06  6816   0.308E-03
   8 F= -.16456733E+04 E0= -.16456802E+04  d E =-.685487E-04
       N       E                     dE             d eps       ncg     rms          rms(c)
DAV:   1    -0.164567336158E+04   -0.73510E-04   -0.57692E-03 12608   0.961E-02    0.135E-02
DAV:   2    -0.164567335216E+04    0.94270E-05   -0.52946E-05 13024   0.127E-02    0.858E-03
DAV:   3    -0.164567334751E+04    0.46432E-05   -0.11333E-05  7568   0.677E-03    0.597E-03
DAV:   4    -0.164567334011E+04    0.74089E-05   -0.65757E-06  6792   0.441E-03    0.112E-03
DAV:   5    -0.164567333997E+04    0.13538E-06   -0.20297E-06  6680   0.289E-03
   9 F= -.16456733E+04 E0= -.16456802E+04  d E =-.501250E-04
       N       E                     dE             d eps       ncg     rms          rms(c)
DAV:   1    -0.164567337285E+04   -0.32746E-04   -0.43340E-03 12592   0.822E-02    0.917E-03
DAV:   2    -0.164567337632E+04   -0.34700E-05   -0.27452E-05  9264   0.926E-03    0.646E-03
DAV:   3    -0.164567337734E+04   -0.10219E-05   -0.78649E-06  6960   0.550E-03    0.422E-03
DAV:   4    -0.164567337980E+04   -0.24526E-05   -0.53983E-06  6680   0.427E-03    0.820E-04
DAV:   5    -0.164567337960E+04    0.19681E-06   -0.23236E-06  6672   0.295E-03
  10 F= -.16456734E+04 E0= -.16456803E+04  d E =-.396287E-04
       N       E                     dE             d eps       ncg     rms          rms(c)
DAV:   1    -0.164567340472E+04   -0.24927E-04   -0.18498E-03 12592   0.549E-02    0.884E-03
DAV:   2    -0.164567339653E+04    0.81933E-05   -0.14300E-05  6720   0.649E-03    0.525E-03
DAV:   3    -0.164567339176E+04    0.47707E-05   -0.58522E-06  6635   0.454E-03    0.248E-03
DAV:   4    -0.164567338891E+04    0.28447E-05   -0.30655E-06  6611   0.366E-03    0.845E-04
DAV:   5    -0.164567338867E+04    0.24386E-06   -0.15870E-06  6611   0.235E-03
  11 F= -.16456734E+04 E0= -.16456803E+04  d E =-.907084E-05
       N       E                     dE             d eps       ncg     rms          rms(c)
DAV:   1    -0.164567339873E+04   -0.98132E-05   -0.67407E-04 12592   0.338E-02    0.645E-03
DAV:   2    -0.164567340254E+04   -0.38132E-05   -0.59001E-06  6548   0.397E-03    0.366E-03
DAV:   3    -0.164567340667E+04   -0.41338E-05   -0.30513E-06  6540   0.273E-03    0.928E-04
DAV:   4    -0.164567340778E+04   -0.11041E-05   -0.11639E-06  6548   0.209E-03    0.511E-04
DAV:   5    -0.164567340809E+04   -0.30810E-06   -0.60221E-07  6540   0.141E-03
  12 F= -.16456734E+04 E0= -.16456803E+04  d E =-.194163E-04
       N       E                     dE             d eps       ncg     rms          rms(c)
DAV:   1    -0.164567342469E+04   -0.16915E-04   -0.17582E-03 12560   0.523E-02    0.563E-03
DAV:   2    -0.164567342398E+04    0.71653E-06   -0.10329E-05  7347   0.549E-03    0.403E-03
DAV:   3    -0.164567342302E+04    0.95178E-06   -0.35654E-06  6595   0.318E-03    0.170E-03
DAV:   4    -0.164567342244E+04    0.58965E-06   -0.19592E-06  6500   0.263E-03    0.499E-04
DAV:   5    -0.164567342268E+04   -0.24161E-06   -0.10338E-06  6492   0.183E-03
  13 F= -.16456734E+04 E0= -.16456803E+04  d E =-.145904E-04
       N       E                     dE             d eps       ncg     rms          rms(c)
DAV:   1    -0.164567343395E+04   -0.11517E-04   -0.28446E-03 12560   0.668E-02    0.788E-03
DAV:   2    -0.164567343771E+04   -0.37552E-05   -0.17603E-05  8392   0.697E-03    0.535E-03
DAV:   3    -0.164567344114E+04   -0.34357E-05   -0.68507E-06  6665   0.399E-03    0.116E-03
DAV:   4    -0.164567344201E+04   -0.86599E-06   -0.28235E-06  6452   0.297E-03    0.607E-04
DAV:   5    -0.164567344205E+04   -0.39236E-07   -0.15282E-06  6452   0.217E-03
  14 F= -.16456734E+04 E0= -.16456803E+04  d E =-.193711E-04
       N       E                     dE             d eps       ncg     rms          rms(c)
DAV:   1    -0.164567344754E+04   -0.55357E-05   -0.12855E-04 12352   0.167E-02    0.489E-03
DAV:   2    -0.164567344188E+04    0.56663E-05   -0.15583E-06  6428   0.200E-03    0.244E-03
DAV:   3    -0.164567343775E+04    0.41286E-05   -0.10782E-06  6420   0.146E-03    0.551E-04
DAV:   4    -0.164567343687E+04    0.87861E-06   -0.24875E-07  6404   0.111E-03    0.264E-04
DAV:   5    -0.164567343653E+04    0.34094E-06   -0.10032E-07  6404   0.595E-04
  15 F= -.16456734E+04 E0= -.16456803E+04  d E =0.551808E-05
       N       E                     dE             d eps       ncg     rms          rms(c)
DAV:   1    -0.164567344484E+04   -0.79735E-05   -0.11288E-03 12560   0.419E-02    0.431E-03
DAV:   2    -0.164567344564E+04   -0.79393E-06   -0.59808E-06  6404   0.413E-03    0.312E-03
DAV:   3    -0.164567344625E+04   -0.60829E-06   -0.22996E-06  6404   0.226E-03    0.455E-04
DAV:   4    -0.164567344638E+04   -0.13346E-06   -0.87899E-07  6404   0.159E-03    0.341E-04
DAV:   5    -0.164567344637E+04    0.11545E-07   -0.48407E-07  6404   0.117E-03
  16 F= -.16456734E+04 E0= -.16456803E+04  d E =-.983860E-05
       N       E                     dE             d eps       ncg     rms          rms(c)
DAV:   1    -0.164567346030E+04   -0.13923E-04   -0.47835E-03 12560   0.863E-02    0.900E-03
DAV:   2    -0.164567345969E+04    0.60783E-06   -0.28369E-05  9688   0.869E-03    0.651E-03
DAV:   3    -0.164567345700E+04    0.26970E-05   -0.93159E-06  6828   0.461E-03    0.110E-03
DAV:   4    -0.164567345700E+04   -0.52119E-08   -0.35909E-06  6428   0.323E-03    0.638E-04
DAV:   5    -0.164567345731E+04   -0.30395E-06   -0.18991E-06  6412   0.241E-03
  17 F= -.16456735E+04 E0= -.16456804E+04  d E =-.109388E-04
       N       E                     dE             d eps       ncg     rms          rms(c)
DAV:   1    -0.164567344829E+04    0.87118E-05   -0.12927E-03 12560   0.459E-02    0.678E-03
DAV:   2    -0.164567345179E+04   -0.34971E-05   -0.66361E-06  6380   0.433E-03    0.408E-03
DAV:   3    -0.164567345531E+04   -0.35191E-05   -0.25906E-06  6380   0.239E-03    0.120E-03
DAV:   4    -0.164567345645E+04   -0.11466E-05   -0.77135E-07  6380   0.169E-03    0.567E-04
DAV:   5    -0.164567345664E+04   -0.18931E-06   -0.29602E-07  6380   0.107E-03
  18 F= -.16456735E+04 E0= -.16456804E+04  d E =0.663645E-06
       N       E                     dE             d eps       ncg     rms          rms(c)
DAV:   1    -0.164567346646E+04   -0.10002E-04   -0.14609E-03 12560   0.478E-02    0.516E-03
DAV:   2    -0.164567346466E+04    0.17942E-05   -0.72226E-06  6380   0.457E-03    0.359E-03
DAV:   3    -0.164567346234E+04    0.23176E-05   -0.24702E-06  6380   0.233E-03    0.677E-04
DAV:   4    -0.164567346210E+04    0.24002E-06   -0.88997E-07  6380   0.158E-03    0.343E-04
DAV:   5    -0.164567346223E+04   -0.12927E-06   -0.44529E-07  6380   0.117E-03
  19 F= -.16456735E+04 E0= -.16456804E+04  d E =-.559020E-05
       N       E                     dE             d eps       ncg     rms          rms(c)
DAV:   1    -0.164567346567E+04   -0.35670E-05   -0.79142E-04 12560   0.350E-02    0.369E-03
DAV:   2    -0.164567346613E+04   -0.45822E-06   -0.47103E-06  6380   0.366E-03    0.269E-03
DAV:   3    -0.164567346638E+04   -0.25403E-06   -0.20214E-06  6380   0.210E-03    0.407E-04
DAV:   4    -0.164567346645E+04   -0.66202E-07   -0.80333E-07  6380   0.138E-03    0.239E-04
DAV:   5    -0.164567346648E+04   -0.31834E-07   -0.44441E-07  6380   0.106E-03
  20 F= -.16456735E+04 E0= -.16456804E+04  d E =-.424803E-05
       N       E                     dE             d eps       ncg     rms          rms(c)
DAV:   1    -0.164567346969E+04   -0.32402E-05   -0.46310E-05 11672   0.108E-02    0.370E-03
DAV:   2    -0.164567346551E+04    0.41770E-05   -0.99593E-07  6380   0.168E-03    0.180E-03
DAV:   3    -0.164567346251E+04    0.30053E-05   -0.57079E-07  6380   0.108E-03    0.459E-04
DAV:   4    -0.164567346182E+04    0.69111E-06   -0.14564E-07  6380   0.863E-04    0.217E-04
DAV:   5    -0.164567346149E+04    0.32732E-06   -0.63754E-08  6380   0.461E-04
  21 F= -.16456735E+04 E0= -.16456804E+04  d E =0.499230E-05
       N       E                     dE             d eps       ncg     rms          rms(c)
DAV:   1    -0.164567346199E+04   -0.17327E-06   -0.17743E-04 12336   0.172E-02    0.301E-03
DAV:   2    -0.164567346408E+04   -0.20921E-05   -0.12793E-06  6380   0.187E-03    0.173E-03
DAV:   3    -0.164567346607E+04   -0.19928E-05   -0.59714E-07  6380   0.114E-03    0.445E-04
DAV:   4    -0.164567346658E+04   -0.50270E-06   -0.19890E-07  6380   0.820E-04    0.236E-04
DAV:   5    -0.164567346670E+04   -0.12193E-06   -0.93409E-08  6380   0.540E-04
  22 F= -.16456735E+04 E0= -.16456804E+04  d E =-.521018E-05
       N       E                     dE             d eps       ncg     rms          rms(c)
DAV:   1    -0.164567346792E+04   -0.13422E-05   -0.14611E-04 12320   0.151E-02    0.161E-03
DAV:   2    -0.164567346792E+04    0.17294E-08   -0.93654E-07  6380   0.163E-03    0.116E-03
DAV:   3    -0.164567346785E+04    0.64720E-07   -0.38666E-07  6380   0.918E-04    0.193E-04
DAV:   4    -0.164567346786E+04   -0.91422E-08   -0.15319E-07  6380   0.601E-04    0.104E-04
DAV:   5    -0.164567346787E+04   -0.10148E-07   -0.85235E-08  6380   0.456E-04
  23 F= -.16456735E+04 E0= -.16456804E+04  d E =-.117308E-05
       N       E                     dE             d eps       ncg     rms          rms(c)
DAV:   1    -0.164567346834E+04   -0.47487E-06   -0.13647E-03 12550   0.462E-02    0.497E-03
DAV:   2    -0.164567347013E+04   -0.17893E-05   -0.74807E-06  6380   0.463E-03    0.352E-03
DAV:   3    -0.164567347189E+04   -0.17598E-05   -0.29047E-06  6375   0.251E-03    0.499E-04
DAV:   4    -0.164567347205E+04   -0.16778E-06   -0.10976E-06  6380   0.166E-03    0.309E-04
DAV:   5    -0.164567347205E+04    0.70440E-08   -0.58330E-07  6375   0.124E-03
  24 F= -.16456735E+04 E0= -.16456804E+04  d E =-.417457E-05
