       N       E                     dE             d eps       ncg     rms          rms(c)
DAV:   1     0.205175354338E+04    0.20518E+04   -0.28310E+05 11400   0.143E+03
DAV:   2    -0.118918068250E+04   -0.32409E+04   -0.31134E+04 13148   0.280E+02
DAV:   3    -0.159949739432E+04   -0.41032E+03   -0.37561E+03 17616   0.822E+01
DAV:   4    -0.162467084203E+04   -0.25173E+02   -0.23039E+02 16112   0.169E+01
DAV:   5    -0.162579395211E+04   -0.11231E+01   -0.10994E+01 17272   0.437E+00    0.396E+01
DAV:   6    -0.158773392065E+04    0.38060E+02   -0.13139E+02 17512   0.157E+01    0.231E+01
DAV:   7    -0.157711872025E+04    0.10615E+02   -0.98812E+01 18088   0.158E+01    0.180E+01
DAV:   8    -0.156676047319E+04    0.10358E+02   -0.65320E+01 16592   0.119E+01    0.113E+01
DAV:   9    -0.155989695341E+04    0.68635E+01   -0.30357E+01 16480   0.859E+00    0.338E+00
DAV:  10    -0.155973414159E+04    0.16281E+00   -0.60657E+00 16346   0.344E+00    0.155E+00
DAV:  11    -0.155973708059E+04   -0.29390E-02   -0.76126E-01 15264   0.132E+00    0.117E+00
DAV:  12    -0.155970780023E+04    0.29280E-01   -0.24195E-01 14304   0.725E-01    0.681E-01
DAV:  13    -0.155969411238E+04    0.13688E-01   -0.68262E-02 14144   0.432E-01    0.363E-01
DAV:  14    -0.155969034168E+04    0.37707E-02   -0.21971E-02 16584   0.232E-01    0.206E-01
DAV:  15    -0.155968892581E+04    0.14159E-02   -0.81542E-03 15808   0.143E-01    0.103E-01
DAV:  16    -0.155968877145E+04    0.15435E-03   -0.26974E-03 15784   0.748E-02    0.579E-02
DAV:  17    -0.155968874947E+04    0.21986E-04   -0.82858E-04 14320   0.429E-02    0.310E-02
DAV:  18    -0.155968875087E+04   -0.14004E-05   -0.26387E-04 16712   0.273E-02    0.213E-02
DAV:  19    -0.155968873463E+04    0.16237E-04   -0.97613E-05 13832   0.160E-02    0.901E-03
DAV:  20    -0.155968873274E+04    0.18945E-05   -0.25231E-05  7304   0.827E-03
   1 F= -.15596887E+04 E0= -.15596893E+04  d E =-.155969E+04
       N       E                     dE             d eps       ncg     rms          rms(c)
DAV:   1    -0.156581897309E+04   -0.61302E+01   -0.21843E+03 11368   0.715E+01    0.256E+01
DAV:   2    -0.154149937242E+04    0.24320E+02   -0.14853E+02 18312   0.168E+01    0.160E+01
DAV:   3    -0.153433089884E+04    0.71685E+01   -0.84122E+01 19056   0.128E+01    0.124E+01
DAV:   4    -0.152908186604E+04    0.52490E+01   -0.31067E+01 20032   0.775E+00    0.849E+00
DAV:   5    -0.152595288315E+04    0.31290E+01   -0.20043E+01 17424   0.568E+00    0.363E+00
DAV:   6    -0.152555934393E+04    0.39354E+00   -0.49274E+00 17336   0.295E+00    0.217E+00
DAV:   7    -0.152548382868E+04    0.75515E-01   -0.81515E-01 15688   0.132E+00    0.159E+00
DAV:   8    -0.152544619145E+04    0.37637E-01   -0.31108E-01 17624   0.618E-01    0.799E-01
DAV:   9    -0.152545072337E+04   -0.45319E-02   -0.18340E-01 17880   0.433E-01    0.435E-01
DAV:  10    -0.152545160347E+04   -0.88011E-03   -0.41376E-02 17432   0.297E-01    0.348E-01
DAV:  11    -0.152544719912E+04    0.44044E-02   -0.19635E-02 19360   0.197E-01    0.155E-01
DAV:  12    -0.152544717044E+04    0.28685E-04   -0.71174E-03 17456   0.953E-02    0.809E-02
DAV:  13    -0.152544754690E+04   -0.37647E-03   -0.18686E-03 16568   0.521E-02    0.464E-02
DAV:  14    -0.152544769024E+04   -0.14334E-03   -0.68935E-04 17832   0.371E-02    0.401E-02
DAV:  15    -0.152544765941E+04    0.30832E-04   -0.26289E-04 17056   0.244E-02    0.253E-02
DAV:  16    -0.152544764356E+04    0.15851E-04   -0.13467E-04 15600   0.149E-02    0.104E-02
DAV:  17    -0.152544764994E+04   -0.63858E-05   -0.29284E-05  7352   0.781E-03
   2 F= -.15254476E+04 E0= -.15254555E+04  d E =0.342411E+02
       N       E                     dE             d eps       ncg     rms          rms(c)
DAV:   1    -0.158692307088E+04   -0.61475E+02   -0.10574E+03 11368   0.551E+01    0.178E+01
DAV:   2    -0.157395786700E+04    0.12965E+02   -0.41229E+01 17026   0.104E+01    0.891E+00
DAV:   3    -0.157175155509E+04    0.22063E+01   -0.23957E+01 17576   0.738E+00    0.717E+00
DAV:   4    -0.156958189784E+04    0.21697E+01   -0.10812E+01 17704   0.518E+00    0.447E+00
DAV:   5    -0.156856807344E+04    0.10138E+01   -0.58258E+00 16704   0.361E+00    0.160E+00
DAV:   6    -0.156849236061E+04    0.75713E-01   -0.13120E+00 15168   0.165E+00    0.810E-01
DAV:   7    -0.156850174855E+04   -0.93879E-02   -0.18959E-01 15072   0.626E-01    0.640E-01
DAV:   8    -0.156850411603E+04   -0.23675E-02   -0.45150E-02 15944   0.288E-01    0.359E-01
DAV:   9    -0.156851750597E+04   -0.13390E-01   -0.59360E-02 16440   0.276E-01    0.289E-01
DAV:  10    -0.156851602994E+04    0.14760E-02   -0.98114E-03 16440   0.172E-01    0.189E-01
DAV:  11    -0.156851492260E+04    0.11073E-02   -0.53789E-03 17368   0.981E-02    0.793E-02
DAV:  12    -0.156851505466E+04   -0.13206E-03   -0.25078E-03 17008   0.608E-02    0.481E-02
DAV:  13    -0.156851534658E+04   -0.29192E-03   -0.58328E-04 14464   0.332E-02    0.310E-02
DAV:  14    -0.156851535225E+04   -0.56672E-05   -0.14234E-04 14520   0.188E-02    0.176E-02
DAV:  15    -0.156851534466E+04    0.75887E-05   -0.50386E-05 10176   0.102E-02
   3 F= -.15685153E+04 E0= -.15685177E+04  d E =-.430677E+02
       N       E                     dE             d eps       ncg     rms          rms(c)
DAV:   1    -0.156879745492E+04   -0.28210E+00   -0.24745E+01 11368   0.678E+00    0.988E-01
DAV:   2    -0.156879994080E+04   -0.24859E-02   -0.41540E-01 16632   0.799E-01    0.668E-01
DAV:   3    -0.156879000431E+04    0.99365E-02   -0.10044E-01 18392   0.493E-01    0.511E-01
DAV:   4    -0.156878035941E+04    0.96449E-02   -0.39448E-02 16808   0.301E-01    0.288E-01
DAV:   5    -0.156877776329E+04    0.25961E-02   -0.20375E-02 15112   0.211E-01    0.129E-01
DAV:   6    -0.156877731989E+04    0.44340E-03   -0.55887E-03 16232   0.127E-01    0.747E-02
DAV:   7    -0.156877723528E+04    0.84605E-04   -0.15349E-03 16328   0.615E-02    0.516E-02
DAV:   8    -0.156877719083E+04    0.44455E-04   -0.44828E-04 15728   0.304E-02    0.290E-02
DAV:   9    -0.156877720547E+04   -0.14642E-04   -0.16670E-04 15616   0.197E-02    0.216E-02
DAV:  10    -0.156877719877E+04    0.67007E-05   -0.80047E-05 13704   0.152E-02
   4 F= -.15687772E+04 E0= -.15687817E+04  d E =-.261854E+00
       N       E                     dE             d eps       ncg     rms          rms(c)
DAV:   1    -0.156882465919E+04   -0.47454E-01   -0.42270E+00 11368   0.274E+00    0.437E-01
DAV:   2    -0.156883042461E+04   -0.57654E-02   -0.11115E-01 18080   0.504E-01    0.404E-01
DAV:   3    -0.156882112378E+04    0.93008E-02   -0.43328E-02 18336   0.333E-01    0.214E-01
DAV:   4    -0.156881956461E+04    0.15592E-02   -0.80764E-03 16736   0.129E-01    0.140E-01
DAV:   5    -0.156881895115E+04    0.61346E-03   -0.35215E-03 15960   0.905E-02    0.794E-02
DAV:   6    -0.156881877082E+04    0.18033E-03   -0.15940E-03 15616   0.658E-02    0.460E-02
DAV:   7    -0.156881867462E+04    0.96203E-04   -0.49584E-04 15152   0.376E-02    0.240E-02
DAV:   8    -0.156881867694E+04   -0.23247E-05   -0.12370E-04 14016   0.154E-02    0.151E-02
DAV:   9    -0.156881867968E+04   -0.27340E-05   -0.32236E-05  8240   0.100E-02
   5 F= -.15688187E+04 E0= -.15688218E+04  d E =-.414809E-01
       N       E                     dE             d eps       ncg     rms          rms(c)
DAV:   1    -0.156883384966E+04   -0.15173E-01   -0.14742E+00 11380   0.164E+00    0.228E-01
DAV:   2    -0.156883538862E+04   -0.15390E-02   -0.24581E-02 17272   0.220E-01    0.204E-01
DAV:   3    -0.156883347846E+04    0.19102E-02   -0.84345E-03 18362   0.148E-01    0.120E-01
DAV:   4    -0.156883313638E+04    0.34208E-03   -0.21591E-03 15888   0.665E-02    0.707E-02
DAV:   5    -0.156883301976E+04    0.11662E-03   -0.11851E-03 15128   0.519E-02    0.308E-02
DAV:   6    -0.156883300675E+04    0.13012E-04   -0.34354E-04 16056   0.325E-02    0.190E-02
DAV:   7    -0.156883299615E+04    0.10605E-04   -0.94638E-05 13688   0.162E-02    0.118E-02
DAV:   8    -0.156883299123E+04    0.49190E-05   -0.21764E-05  7080   0.801E-03
   6 F= -.15688330E+04 E0= -.15688366E+04  d E =-.143116E-01
       N       E                     dE             d eps       ncg     rms          rms(c)
DAV:   1    -0.156884232674E+04   -0.93306E-02   -0.48384E-01 11440   0.960E-01    0.196E-01
DAV:   2    -0.156884248592E+04   -0.15918E-03   -0.15199E-02 18120   0.199E-01    0.170E-01
DAV:   3    -0.156884080728E+04    0.16786E-02   -0.75764E-03 18336   0.140E-01    0.915E-02
DAV:   4    -0.156884045195E+04    0.35533E-03   -0.15887E-03 16312   0.566E-02    0.572E-02
DAV:   5    -0.156884028321E+04    0.16874E-03   -0.71962E-04 15792   0.422E-02    0.298E-02
DAV:   6    -0.156884023315E+04    0.50054E-04   -0.27302E-04 15568   0.275E-02    0.174E-02
DAV:   7    -0.156884021772E+04    0.15438E-04   -0.73175E-05 13288   0.147E-02    0.985E-03
DAV:   8    -0.156884021997E+04   -0.22531E-05   -0.16576E-05  6728   0.664E-03
   7 F= -.15688402E+04 E0= -.15688432E+04  d E =-.722874E-02
       N       E                     dE             d eps       ncg     rms          rms(c)
DAV:   1    -0.156884458879E+04   -0.43711E-02   -0.40946E-01 11392   0.847E-01    0.102E-01
DAV:   2    -0.156884550098E+04   -0.91219E-03   -0.71381E-03 17688   0.127E-01    0.120E-01
DAV:   3    -0.156884466882E+04    0.83216E-03   -0.27935E-03 18192   0.857E-02    0.561E-02
DAV:   4    -0.156884463438E+04    0.34442E-04   -0.46864E-04 16424   0.304E-02    0.372E-02
DAV:   5    -0.156884461722E+04    0.17160E-04   -0.26889E-04 14976   0.249E-02    0.155E-02
DAV:   6    -0.156884461509E+04    0.21298E-05   -0.80011E-05 13488   0.165E-02
   8 F= -.15688446E+04 E0= -.15688477E+04  d E =-.439512E-02
       N       E                     dE             d eps       ncg     rms          rms(c)
DAV:   1    -0.156884687174E+04   -0.22545E-02   -0.18873E-01 11482   0.579E-01    0.886E-02
DAV:   2    -0.156884722078E+04   -0.34904E-03   -0.44061E-03 18184   0.107E-01    0.949E-02
DAV:   3    -0.156884665602E+04    0.56476E-03   -0.20446E-03 18314   0.731E-02    0.438E-02
DAV:   4    -0.156884658719E+04    0.68826E-04   -0.32978E-04 16176   0.253E-02    0.294E-02
DAV:   5    -0.156884654292E+04    0.44273E-04   -0.15750E-04 15216   0.199E-02    0.155E-02
DAV:   6    -0.156884652691E+04    0.16011E-04   -0.60765E-05 12296   0.140E-02    0.868E-03
DAV:   7    -0.156884652273E+04    0.41763E-05   -0.16582E-05  6752   0.786E-03
   9 F= -.15688465E+04 E0= -.15688494E+04  d E =-.190764E-02
       N       E                     dE             d eps       ncg     rms          rms(c)
DAV:   1    -0.156884759958E+04   -0.10727E-02   -0.70580E-02 11488   0.359E-01    0.534E-02
DAV:   2    -0.156884768343E+04   -0.83850E-04   -0.10624E-03 17224   0.474E-02    0.469E-02
DAV:   3    -0.156884758966E+04    0.93767E-04   -0.42816E-04 18370   0.335E-02    0.276E-02
DAV:   4    -0.156884758630E+04    0.33578E-05   -0.98775E-05 13584   0.145E-02    0.133E-02
DAV:   5    -0.156884759439E+04   -0.80917E-05   -0.37726E-05  8816   0.111E-02
  10 F= -.15688476E+04 E0= -.15688506E+04  d E =-.107166E-02
       N       E                     dE             d eps       ncg     rms          rms(c)
DAV:   1    -0.156884852097E+04   -0.93467E-03   -0.70104E-02 11452   0.350E-01    0.477E-02
DAV:   2    -0.156884863442E+04   -0.11345E-03   -0.13390E-03 18080   0.577E-02    0.524E-02
DAV:   3    -0.156884846610E+04    0.16833E-03   -0.58138E-04 18256   0.392E-02    0.249E-02
DAV:   4    -0.156884844302E+04    0.23078E-04   -0.86708E-05 13160   0.134E-02    0.165E-02
DAV:   5    -0.156884842553E+04    0.17490E-04   -0.39851E-05  9224   0.113E-02    0.788E-03
DAV:   6    -0.156884841988E+04    0.56455E-05   -0.13389E-05  6992   0.817E-03
  11 F= -.15688484E+04 E0= -.15688513E+04  d E =-.825488E-03
       N       E                     dE             d eps       ncg     rms          rms(c)
DAV:   1    -0.156884900248E+04   -0.57695E-03   -0.59713E-02 11434   0.321E-01    0.345E-02
DAV:   2    -0.156884910334E+04   -0.10086E-03   -0.77413E-04 17600   0.401E-02    0.378E-02
DAV:   3    -0.156884903280E+04    0.70543E-04   -0.25142E-04 17240   0.260E-02    0.203E-02
DAV:   4    -0.156884903442E+04   -0.16286E-05   -0.47858E-05 10168   0.104E-02    0.105E-02
DAV:   5    -0.156884903732E+04   -0.28916E-05   -0.18337E-05  7124   0.841E-03
  12 F= -.15688490E+04 E0= -.15688520E+04  d E =-.617434E-03
       N       E                     dE             d eps       ncg     rms          rms(c)
DAV:   1    -0.156884937277E+04   -0.33835E-03   -0.18405E-02 11512   0.182E-01    0.286E-02
DAV:   2    -0.156884936329E+04    0.94819E-05   -0.33022E-04 17688   0.277E-02    0.246E-02
DAV:   3    -0.156884932925E+04    0.34042E-04   -0.13138E-04 15712   0.193E-02    0.141E-02
DAV:   4    -0.156884931474E+04    0.14508E-04   -0.25183E-05  7352   0.857E-03    0.843E-03
DAV:   5    -0.156884930468E+04    0.10064E-04   -0.13323E-05  6384   0.700E-03    0.416E-03
DAV:   6    -0.156884930143E+04    0.32472E-05   -0.50231E-06  6272   0.503E-03
  13 F= -.15688493E+04 E0= -.15688522E+04  d E =-.264112E-03
       N       E                     dE             d eps       ncg     rms          rms(c)
DAV:   1    -0.156884960672E+04   -0.30204E-03   -0.24005E-02 11428   0.204E-01    0.222E-02
DAV:   2    -0.156884963798E+04   -0.31260E-04   -0.26176E-04 16928   0.219E-02    0.204E-02
DAV:   3    -0.156884962287E+04    0.15108E-04   -0.55811E-05 10860   0.134E-02    0.131E-02
DAV:   4    -0.156884962738E+04   -0.45062E-05   -0.21054E-05  6640   0.753E-03    0.560E-03
DAV:   5    -0.156884963064E+04   -0.32617E-05   -0.79630E-06  6352   0.584E-03
  14 F= -.15688496E+04 E0= -.15688526E+04  d E =-.329209E-03
       N       E                     dE             d eps       ncg     rms          rms(c)
DAV:   1    -0.156884991621E+04   -0.28883E-03   -0.25701E-02 11452   0.210E-01    0.222E-02
DAV:   2    -0.156884993741E+04   -0.21199E-04   -0.30432E-04 17288   0.254E-02    0.226E-02
DAV:   3    -0.156884991148E+04    0.25922E-04   -0.88959E-05 14226   0.163E-02    0.131E-02
DAV:   4    -0.156884990420E+04    0.72869E-05   -0.18148E-05  6752   0.715E-03    0.766E-03
DAV:   5    -0.156884989896E+04    0.52362E-05   -0.93847E-06  6336   0.635E-03
  15 F= -.15688499E+04 E0= -.15688528E+04  d E =-.268323E-03
       N       E                     dE             d eps       ncg     rms          rms(c)
DAV:   1    -0.156885007605E+04   -0.17185E-03   -0.14503E-02 11500   0.159E-01    0.169E-02
DAV:   2    -0.156885009291E+04   -0.16856E-04   -0.14100E-04 15976   0.154E-02    0.133E-02
DAV:   3    -0.156885008992E+04    0.29890E-05   -0.18152E-05  7642   0.851E-03    0.983E-03
DAV:   4    -0.156885009469E+04   -0.47738E-05   -0.11749E-05  6248   0.573E-03    0.396E-03
DAV:   5    -0.156885009744E+04   -0.27491E-05   -0.46906E-06  6192   0.453E-03
  16 F= -.15688501E+04 E0= -.15688530E+04  d E =-.198479E-03
       N       E                     dE             d eps       ncg     rms          rms(c)
DAV:   1    -0.156885025475E+04   -0.16006E-03   -0.93839E-03 11488   0.128E-01    0.154E-02
DAV:   2    -0.156885025035E+04    0.44031E-05   -0.10342E-04 14944   0.149E-02    0.125E-02
DAV:   3    -0.156885024249E+04    0.78600E-05   -0.23569E-05  8002   0.980E-03    0.840E-03
DAV:   4    -0.156885023703E+04    0.54603E-05   -0.10349E-05  6200   0.547E-03    0.491E-03
DAV:   5    -0.156885023266E+04    0.43679E-05   -0.55276E-06  6048   0.455E-03
  17 F= -.15688502E+04 E0= -.15688531E+04  d E =-.135222E-03
       N       E                     dE             d eps       ncg     rms          rms(c)
DAV:   1    -0.156885038625E+04   -0.14922E-03   -0.13850E-02 11452   0.154E-01    0.147E-02
DAV:   2    -0.156885039966E+04   -0.13406E-04   -0.12638E-04 15816   0.146E-02    0.123E-02
DAV:   3    -0.156885039687E+04    0.27852E-05   -0.13923E-05  7254   0.760E-03    0.936E-03
DAV:   4    -0.156885039924E+04   -0.23737E-05   -0.10722E-05  6104   0.526E-03    0.300E-03
DAV:   5    -0.156885040030E+04   -0.10551E-05   -0.37106E-06  6032   0.421E-03
  18 F= -.15688504E+04 E0= -.15688533E+04  d E =-.167638E-03
       N       E                     dE             d eps       ncg     rms          rms(c)
DAV:   1    -0.156885055145E+04   -0.15220E-03   -0.14032E-02 11440   0.155E-01    0.157E-02
DAV:   2    -0.156885055244E+04   -0.99424E-06   -0.13630E-04 15952   0.156E-02    0.127E-02
DAV:   3    -0.156885054660E+04    0.58447E-05   -0.18370E-05  7628   0.880E-03    0.938E-03
DAV:   4    -0.156885054128E+04    0.53130E-05   -0.10149E-05  6176   0.536E-03    0.506E-03
DAV:   5    -0.156885053769E+04    0.35978E-05   -0.54381E-06  6024   0.460E-03
  19 F= -.15688505E+04 E0= -.15688534E+04  d E =-.137387E-03
       N       E                     dE             d eps       ncg     rms          rms(c)
DAV:   1    -0.156885060376E+04   -0.62477E-04   -0.34011E-03 11488   0.775E-02    0.949E-03
DAV:   2    -0.156885060969E+04   -0.59334E-05   -0.22265E-05  7592   0.774E-03    0.632E-03
DAV:   3    -0.156885061144E+04   -0.17459E-05   -0.85581E-06  6356   0.556E-03    0.472E-03
DAV:   4    -0.156885061505E+04   -0.36125E-05   -0.49174E-06  5960   0.420E-03    0.199E-03
DAV:   5    -0.156885061685E+04   -0.17949E-05   -0.27743E-06  5936   0.297E-03
  20 F= -.15688506E+04 E0= -.15688536E+04  d E =-.791616E-04
       N       E                     dE             d eps       ncg     rms          rms(c)
DAV:   1    -0.156885072999E+04   -0.11494E-03   -0.95336E-03 11440   0.128E-01    0.128E-02
DAV:   2    -0.156885073041E+04   -0.41252E-06   -0.94238E-05 15008   0.120E-02    0.963E-03
DAV:   3    -0.156885072804E+04    0.23656E-05   -0.88619E-06  6612   0.585E-03    0.760E-03
DAV:   4    -0.156885072427E+04    0.37705E-05   -0.53376E-06  5960   0.437E-03    0.383E-03
DAV:   5    -0.156885072198E+04    0.22896E-05   -0.29484E-06  5936   0.343E-03
  21 F= -.15688507E+04 E0= -.15688536E+04  d E =-.105133E-03
       N       E                     dE             d eps       ncg     rms          rms(c)
DAV:   1    -0.156885079420E+04   -0.69928E-04   -0.51340E-03 11464   0.938E-02    0.876E-03
DAV:   2    -0.156885079891E+04   -0.47109E-05   -0.31204E-05  8472   0.841E-03    0.645E-03
DAV:   3    -0.156885080007E+04   -0.11587E-05   -0.95210E-06  6124   0.515E-03    0.488E-03
DAV:   4    -0.156885080264E+04   -0.25677E-05   -0.58478E-06  5936   0.410E-03    0.140E-03
DAV:   5    -0.156885080334E+04   -0.70310E-06   -0.28825E-06  5936   0.301E-03
  22 F= -.15688508E+04 E0= -.15688537E+04  d E =-.813583E-04
       N       E                     dE             d eps       ncg     rms          rms(c)
DAV:   1    -0.156885089958E+04   -0.96948E-04   -0.92987E-03 11440   0.126E-01    0.127E-02
DAV:   2    -0.156885089843E+04    0.11518E-05   -0.93532E-05 15008   0.118E-02    0.935E-03
DAV:   3    -0.156885089574E+04    0.26875E-05   -0.84059E-06  6562   0.568E-03    0.729E-03
DAV:   4    -0.156885089178E+04    0.39668E-05   -0.49050E-06  5984   0.439E-03    0.385E-03
DAV:   5    -0.156885088903E+04    0.27476E-05   -0.28229E-06  5936   0.331E-03
  23 F= -.15688509E+04 E0= -.15688538E+04  d E =-.856910E-04
       N       E                     dE             d eps       ncg     rms          rms(c)
DAV:   1    -0.156885091411E+04   -0.22332E-04   -0.79319E-04 11512   0.380E-02    0.561E-03
DAV:   2    -0.156885091815E+04   -0.40388E-05   -0.63414E-06  5936   0.415E-03    0.345E-03
DAV:   3    -0.156885091940E+04   -0.12556E-05   -0.24512E-06  5936   0.321E-03    0.263E-03
DAV:   4    -0.156885092172E+04   -0.23210E-05   -0.14831E-06  5936   0.228E-03    0.114E-03
DAV:   5    -0.156885092285E+04   -0.11265E-05   -0.80452E-07  5936   0.162E-03
  24 F= -.15688509E+04 E0= -.15688539E+04  d E =-.338212E-04
       N       E                     dE             d eps       ncg     rms          rms(c)
DAV:   1    -0.156885100222E+04   -0.80494E-04   -0.77217E-03 11428   0.115E-01    0.106E-02
DAV:   2    -0.156885100409E+04   -0.18709E-05   -0.63369E-05 12128   0.100E-02    0.813E-03
DAV:   3    -0.156885100307E+04    0.10155E-05   -0.81590E-06  6258   0.512E-03    0.594E-03
DAV:   4    -0.156885100103E+04    0.20438E-05   -0.44017E-06  5960   0.396E-03    0.221E-03
DAV:   5    -0.156885100052E+04    0.51243E-06   -0.19681E-06  5930   0.281E-03
  25 F= -.15688510E+04 E0= -.15688539E+04  d E =-.776669E-04
       N       E                     dE             d eps       ncg     rms          rms(c)
DAV:   1    -0.156885108376E+04   -0.82730E-04   -0.13062E-02 11404   0.150E-01    0.140E-02
DAV:   2    -0.156885109535E+04   -0.11590E-04   -0.11690E-04 15664   0.129E-02    0.104E-02
DAV:   3    -0.156885109622E+04   -0.87224E-06   -0.80394E-06  6380   0.515E-03    0.675E-03
DAV:   4    -0.156885109847E+04   -0.22496E-05   -0.50549E-06  6152   0.496E-03    0.292E-03
DAV:   5    -0.156885109926E+04   -0.78379E-06   -0.21638E-06  5976   0.353E-03
  26 F= -.15688511E+04 E0= -.15688541E+04  d E =-.987384E-04
       N       E                     dE             d eps       ncg     rms          rms(c)
DAV:   1    -0.156885110948E+04   -0.11008E-04   -0.14840E-04 11512   0.202E-02    0.645E-03
DAV:   2    -0.156885110156E+04    0.79243E-05   -0.37308E-06  5936   0.377E-03    0.330E-03
DAV:   3    -0.156885109944E+04    0.21140E-05   -0.18844E-06  5930   0.355E-03    0.271E-03
DAV:   4    -0.156885109653E+04    0.29148E-05   -0.89728E-07  5936   0.215E-03    0.111E-03
DAV:   5    -0.156885109489E+04    0.16349E-05   -0.44291E-07  5936   0.117E-03
  27 F= -.15688511E+04 E0= -.15688540E+04  d E =0.436393E-05
       N       E                     dE             d eps       ncg     rms          rms(c)
DAV:   1    -0.156885114947E+04   -0.52943E-04   -0.56520E-03 11440   0.981E-02    0.876E-03
DAV:   2    -0.156885115180E+04   -0.23324E-05   -0.31741E-05  8536   0.829E-03    0.647E-03
DAV:   3    -0.156885115243E+04   -0.62590E-06   -0.96486E-06  5994   0.472E-03    0.378E-03
DAV:   4    -0.156885115305E+04   -0.61818E-06   -0.52575E-06  5936   0.403E-03    0.134E-03
DAV:   5    -0.156885115322E+04   -0.17262E-06   -0.26534E-06  5930   0.278E-03
  28 F= -.15688512E+04 E0= -.15688541E+04  d E =-.583265E-04
       N       E                     dE             d eps       ncg     rms          rms(c)
DAV:   1    -0.156885125743E+04   -0.10438E-03   -0.27330E-02 11392   0.216E-01    0.199E-02
DAV:   2    -0.156885126611E+04   -0.86862E-05   -0.24970E-04 16704   0.189E-02    0.150E-02
DAV:   3    -0.156885126065E+04    0.54634E-05   -0.14591E-05  7284   0.730E-03    0.106E-02
DAV:   4    -0.156885125509E+04    0.55588E-05   -0.11341E-05  6680   0.700E-03    0.500E-03
DAV:   5    -0.156885125248E+04    0.26111E-05   -0.54042E-06  6064   0.513E-03
  29 F= -.15688513E+04 E0= -.15688542E+04  d E =-.992601E-04
       N       E                     dE             d eps       ncg     rms          rms(c)
DAV:   1    -0.156885119887E+04    0.56218E-04   -0.76035E-03 11404   0.115E-01    0.127E-02
DAV:   2    -0.156885120531E+04   -0.64402E-05   -0.54686E-05 11288   0.101E-02    0.876E-03
DAV:   3    -0.156885120672E+04   -0.14119E-05   -0.96737E-06  5912   0.582E-03    0.670E-03
DAV:   4    -0.156885120882E+04   -0.20991E-05   -0.46624E-06  5936   0.433E-03    0.295E-03
DAV:   5    -0.156885121071E+04   -0.18897E-05   -0.24031E-06  5936   0.307E-03
  30 F= -.15688512E+04 E0= -.15688542E+04  d E =0.417663E-04
       N       E                     dE             d eps       ncg     rms          rms(c)
DAV:   1    -0.156885126499E+04   -0.56165E-04   -0.71578E-03 11416   0.110E-01    0.981E-03
DAV:   2    -0.156885126637E+04   -0.13813E-05   -0.43244E-05 10056   0.928E-03    0.744E-03
DAV:   3    -0.156885126583E+04    0.53833E-06   -0.78214E-06  5930   0.493E-03    0.532E-03
DAV:   4    -0.156885126457E+04    0.12626E-05   -0.49647E-06  5936   0.402E-03    0.145E-03
DAV:   5    -0.156885126457E+04   -0.15857E-08   -0.19038E-06  5936   0.262E-03
  31 F= -.15688513E+04 E0= -.15688542E+04  d E =-.538577E-04
       N       E                     dE             d eps       ncg     rms          rms(c)
DAV:   1    -0.156885141363E+04   -0.14906E-03   -0.18119E-01 11368   0.555E-01    0.490E-02
DAV:   2    -0.156885150352E+04   -0.89891E-04   -0.15141E-03 16864   0.468E-02    0.377E-02
DAV:   3    -0.156885148264E+04    0.20876E-04   -0.13197E-04 15664   0.173E-02    0.241E-02
DAV:   4    -0.156885146640E+04    0.16241E-04   -0.96922E-05 13760   0.164E-02    0.108E-02
DAV:   5    -0.156885146014E+04    0.62649E-05   -0.32030E-05  8840   0.103E-02
  32 F= -.15688515E+04 E0= -.15688545E+04  d E =-.195568E-03
       N       E                     dE             d eps       ncg     rms          rms(c)
DAV:   1    -0.156885148891E+04   -0.22512E-04   -0.32652E-02 11392   0.236E-01    0.195E-02
DAV:   2    -0.156885150952E+04   -0.20603E-04   -0.28198E-04 16712   0.202E-02    0.154E-02
DAV:   3    -0.156885150703E+04    0.24874E-05   -0.12938E-05  7320   0.710E-03    0.116E-02
DAV:   4    -0.156885150407E+04    0.29645E-05   -0.14314E-05  6568   0.696E-03    0.365E-03
DAV:   5    -0.156885150376E+04    0.31060E-06   -0.45858E-06  6168   0.486E-03
  33 F= -.15688515E+04 E0= -.15688545E+04  d E =-.436173E-04
       N       E                     dE             d eps       ncg     rms          rms(c)
DAV:   1    -0.156885151285E+04   -0.87807E-05   -0.63334E-03 11416   0.104E-01    0.866E-03
DAV:   2    -0.156885151584E+04   -0.29909E-05   -0.52240E-05 11168   0.936E-03    0.691E-03
DAV:   3    -0.156885151555E+04    0.28441E-06   -0.78881E-06  6248   0.507E-03    0.533E-03
DAV:   4    -0.156885151463E+04    0.92362E-06   -0.37506E-06  6008   0.332E-03    0.216E-03
DAV:   5    -0.156885151443E+04    0.19572E-06   -0.18774E-06  5960   0.259E-03
  34 F= -.15688515E+04 E0= -.15688545E+04  d E =-.106784E-04
       N       E                     dE             d eps       ncg     rms          rms(c)
DAV:   1    -0.156885151711E+04   -0.24847E-05   -0.18259E-03 11416   0.558E-02    0.494E-03
DAV:   2    -0.156885151889E+04   -0.17746E-05   -0.11610E-05  5934   0.510E-03    0.369E-03
DAV:   3    -0.156885151937E+04   -0.48494E-06   -0.42749E-06  5900   0.315E-03    0.279E-03
DAV:   4    -0.156885152023E+04   -0.85100E-06   -0.25265E-06  5900   0.245E-03    0.104E-03
DAV:   5    -0.156885152058E+04   -0.35259E-06   -0.13948E-06  5900   0.186E-03
  35 F= -.15688515E+04 E0= -.15688546E+04  d E =-.614360E-05
       N       E                     dE             d eps       ncg     rms          rms(c)
DAV:   1    -0.156885152072E+04   -0.49129E-06   -0.43121E-04 11452   0.275E-02    0.295E-03
DAV:   2    -0.156885151893E+04    0.17887E-05   -0.18297E-06  5846   0.229E-03    0.195E-03
DAV:   3    -0.156885151821E+04    0.71287E-06   -0.52520E-07  5834   0.141E-03    0.142E-03
DAV:   4    -0.156885151725E+04    0.96477E-06   -0.28496E-07  5846   0.113E-03    0.602E-04
DAV:   5    -0.156885151686E+04    0.38736E-06   -0.14863E-07  5846   0.729E-04
  36 F= -.15688515E+04 E0= -.15688545E+04  d E =0.371496E-05
       N       E                     dE             d eps       ncg     rms          rms(c)
DAV:   1    -0.156885151851E+04   -0.12647E-05   -0.31783E-04 11348   0.233E-02    0.208E-03
DAV:   2    -0.156885151887E+04   -0.35954E-06   -0.16227E-06  5828   0.208E-03    0.158E-03
DAV:   3    -0.156885151893E+04   -0.55429E-07   -0.52106E-07  5828   0.121E-03    0.123E-03
DAV:   4    -0.156885151914E+04   -0.20862E-06   -0.32637E-07  5828   0.929E-04    0.526E-04
DAV:   5    -0.156885151925E+04   -0.10725E-06   -0.17519E-07  5828   0.718E-04
  37 F= -.15688515E+04 E0= -.15688545E+04  d E =-.238291E-05
       N       E                     dE             d eps       ncg     rms          rms(c)
DAV:   1    -0.156885152197E+04   -0.28340E-05   -0.11031E-03 11416   0.433E-02    0.383E-03
DAV:   2    -0.156885152218E+04   -0.20855E-06   -0.62169E-06  5846   0.386E-03    0.290E-03
DAV:   3    -0.156885152221E+04   -0.27551E-07   -0.22147E-06  5828   0.233E-03    0.223E-03
DAV:   4    -0.156885152207E+04    0.13482E-06   -0.13711E-06  5846   0.189E-03    0.758E-04
DAV:   5    -0.156885152208E+04   -0.90854E-08   -0.72396E-07  5846   0.143E-03
  38 F= -.15688515E+04 E0= -.15688546E+04  d E =-.283708E-05
