       N       E                     dE             d eps       ncg     rms          rms(c)
DAV:   1     0.244745454909E+04    0.24475E+04   -0.30240E+05 12040   0.144E+03
DAV:   2    -0.119924443703E+04   -0.36467E+04   -0.34941E+04 13916   0.321E+02
DAV:   3    -0.166687963358E+04   -0.46764E+03   -0.43875E+03 18456   0.821E+01
DAV:   4    -0.169192954660E+04   -0.25050E+02   -0.23845E+02 16808   0.180E+01
DAV:   5    -0.169299778729E+04   -0.10682E+01   -0.10515E+01 18760   0.405E+00    0.437E+01
DAV:   6    -0.164148885380E+04    0.51509E+02   -0.14039E+02 18208   0.152E+01    0.231E+01
DAV:   7    -0.162732181655E+04    0.14167E+02   -0.85977E+01 17032   0.137E+01    0.149E+01
DAV:   8    -0.161867832785E+04    0.86435E+01   -0.42203E+01 17112   0.119E+01    0.666E+00
DAV:   9    -0.161609404682E+04    0.25843E+01   -0.15564E+01 17008   0.679E+00    0.207E+00
DAV:  10    -0.161619379529E+04   -0.99748E-01   -0.31602E+00 17120   0.240E+00    0.149E+00
DAV:  11    -0.161615409628E+04    0.39699E-01   -0.37180E-01 15784   0.874E-01    0.809E-01
DAV:  12    -0.161613929305E+04    0.14803E-01   -0.11174E-01 14632   0.539E-01    0.438E-01
DAV:  13    -0.161613339272E+04    0.59003E-02   -0.28653E-02 16344   0.299E-01    0.231E-01
DAV:  14    -0.161613168206E+04    0.17107E-02   -0.11135E-02 14976   0.159E-01    0.732E-02
DAV:  15    -0.161613177308E+04   -0.91025E-04   -0.27435E-03 16176   0.801E-02    0.453E-02
DAV:  16    -0.161613174663E+04    0.26457E-04   -0.56780E-04 16376   0.421E-02    0.298E-02
DAV:  17    -0.161613170990E+04    0.36731E-04   -0.17917E-04 15704   0.209E-02    0.122E-02
DAV:  18    -0.161613169716E+04    0.12737E-04   -0.38682E-05  9200   0.103E-02    0.645E-03
DAV:  19    -0.161613169121E+04    0.59468E-05   -0.14101E-05  7680   0.634E-03
   1 F= -.16161317E+04 E0= -.16161237E+04  d E =-.161613E+04
       N       E                     dE             d eps       ncg     rms          rms(c)
DAV:   1    -0.161751050847E+04   -0.13788E+01   -0.61340E+02 12040   0.361E+01    0.119E+01
DAV:   2    -0.161099445394E+04    0.65161E+01   -0.23403E+01 16496   0.664E+00    0.575E+00
DAV:   3    -0.160952726119E+04    0.14672E+01   -0.89134E+00 16872   0.430E+00    0.376E+00
DAV:   4    -0.160896505203E+04    0.56221E+00   -0.32637E+00 17856   0.330E+00    0.232E+00
DAV:   5    -0.160863381974E+04    0.33123E+00   -0.18768E+00 16928   0.229E+00    0.706E-01
DAV:   6    -0.160863351479E+04    0.30495E-03   -0.35877E-01 15648   0.891E-01    0.500E-01
DAV:   7    -0.160863324131E+04    0.27348E-03   -0.61565E-02 16504   0.377E-01    0.357E-01
DAV:   8    -0.160863363403E+04   -0.39272E-03   -0.23031E-02 15800   0.201E-01    0.177E-01
DAV:   9    -0.160863501627E+04   -0.13822E-02   -0.92691E-03 15944   0.128E-01    0.119E-01
DAV:  10    -0.160863451477E+04    0.50150E-03   -0.23756E-03 15984   0.837E-02    0.680E-02
DAV:  11    -0.160863434210E+04    0.17268E-03   -0.13812E-03 16920   0.526E-02    0.311E-02
DAV:  12    -0.160863439542E+04   -0.53326E-04   -0.46405E-04 16640   0.283E-02    0.223E-02
DAV:  13    -0.160863440004E+04   -0.46217E-05   -0.77189E-05 13952   0.139E-02
   2 F= -.16086344E+04 E0= -.16086325E+04  d E =0.749729E+01
       N       E                     dE             d eps       ncg     rms          rms(c)
DAV:   1    -0.162286053380E+04   -0.14226E+02   -0.24231E+02 12040   0.253E+01    0.869E+00
DAV:   2    -0.161925889224E+04    0.36016E+01   -0.69366E+00 13904   0.405E+00    0.403E+00
DAV:   3    -0.161848232532E+04    0.77657E+00   -0.25584E+00 14592   0.243E+00    0.215E+00
DAV:   4    -0.161825900407E+04    0.22332E+00   -0.10639E+00 15640   0.204E+00    0.103E+00
DAV:   5    -0.161818866874E+04    0.70335E-01   -0.47242E-01 15760   0.129E+00    0.307E-01
DAV:   6    -0.161819354398E+04   -0.48752E-02   -0.91780E-02 15640   0.459E-01    0.254E-01
DAV:   7    -0.161819458908E+04   -0.10451E-02   -0.12960E-02 15360   0.180E-01    0.164E-01
DAV:   8    -0.161819590713E+04   -0.13181E-02   -0.54607E-03 15752   0.104E-01    0.808E-02
DAV:   9    -0.161819666879E+04   -0.76165E-03   -0.18514E-03 13816   0.623E-02    0.457E-02
DAV:  10    -0.161819678458E+04   -0.11579E-03   -0.66987E-04 15928   0.385E-02    0.238E-02
DAV:  11    -0.161819686209E+04   -0.77510E-04   -0.21209E-04 15448   0.233E-02    0.185E-02
DAV:  12    -0.161819689456E+04   -0.32473E-04   -0.63758E-05 12496   0.123E-02    0.868E-03
DAV:  13    -0.161819688789E+04    0.66708E-05   -0.13653E-05  7280   0.551E-03
   3 F= -.16181969E+04 E0= -.16181939E+04  d E =-.956249E+01
       N       E                     dE             d eps       ncg     rms          rms(c)
DAV:   1    -0.161823582796E+04   -0.38933E-01   -0.83658E+00 12040   0.366E+00    0.472E-01
DAV:   2    -0.161824237795E+04   -0.65500E-02   -0.15236E-01 17288   0.540E-01    0.308E-01
DAV:   3    -0.161824050513E+04    0.18728E-02   -0.24949E-02 18512   0.272E-01    0.230E-01
DAV:   4    -0.161823941709E+04    0.10880E-02   -0.63983E-03 19232   0.137E-01    0.139E-01
DAV:   5    -0.161823886045E+04    0.55665E-03   -0.34655E-03 16472   0.877E-02    0.389E-02
DAV:   6    -0.161823883212E+04    0.28331E-04   -0.71192E-04 16472   0.447E-02    0.241E-02
DAV:   7    -0.161823882130E+04    0.10815E-04   -0.14857E-04 15016   0.210E-02    0.156E-02
DAV:   8    -0.161823881852E+04    0.27836E-05   -0.38560E-05  9072   0.100E-02
   4 F= -.16182388E+04 E0= -.16182363E+04  d E =-.419306E-01
       N       E                     dE             d eps       ncg     rms          rms(c)
DAV:   1    -0.161824365468E+04   -0.48334E-02   -0.71924E-01 12130   0.108E+00    0.124E-01
DAV:   2    -0.161824424014E+04   -0.58545E-03   -0.10506E-02 17048   0.161E-01    0.931E-02
DAV:   3    -0.161824390441E+04    0.33573E-03   -0.24263E-03 18286   0.872E-02    0.660E-02
DAV:   4    -0.161824381800E+04    0.86411E-04   -0.51407E-04 17432   0.360E-02    0.370E-02
DAV:   5    -0.161824380302E+04    0.14979E-04   -0.29768E-04 15424   0.268E-02    0.128E-02
DAV:   6    -0.161824379676E+04    0.62590E-05   -0.66847E-05 13736   0.150E-02
   5 F= -.16182438E+04 E0= -.16182414E+04  d E =-.497825E-02
       N       E                     dE             d eps       ncg     rms          rms(c)
DAV:   1    -0.161824519794E+04   -0.13949E-02   -0.17638E-01 12166   0.562E-01    0.113E-01
DAV:   2    -0.161824479038E+04    0.40755E-03   -0.30004E-03 16944   0.909E-02    0.657E-02
DAV:   3    -0.161824460552E+04    0.18486E-03   -0.11811E-03 18228   0.613E-02    0.476E-02
DAV:   4    -0.161824445825E+04    0.14727E-03   -0.36643E-04 16776   0.332E-02    0.216E-02
DAV:   5    -0.161824441417E+04    0.44086E-04   -0.16516E-04 15304   0.202E-02    0.881E-03
DAV:   6    -0.161824440904E+04    0.51225E-05   -0.25823E-05  8760   0.101E-02
   6 F= -.16182444E+04 E0= -.16182423E+04  d E =-.612280E-03
       N       E                     dE             d eps       ncg     rms          rms(c)
DAV:   1    -0.161824573377E+04   -0.13196E-02   -0.37338E-02 12202   0.284E-01    0.821E-02
DAV:   2    -0.161824551174E+04    0.22203E-03   -0.72195E-04 15632   0.398E-02    0.397E-02
DAV:   3    -0.161824548788E+04    0.23862E-04   -0.26763E-04 15674   0.258E-02    0.234E-02
DAV:   4    -0.161824548635E+04    0.15266E-05   -0.11958E-04 15776   0.220E-02    0.112E-02
DAV:   5    -0.161824549519E+04   -0.88438E-05   -0.47523E-05 11912   0.127E-02
   7 F= -.16182455E+04 E0= -.16182432E+04  d E =-.108615E-02
       N       E                     dE             d eps       ncg     rms          rms(c)
DAV:   1    -0.161824602751E+04   -0.54116E-03   -0.58051E-02 12184   0.307E-01    0.369E-02
DAV:   2    -0.161824604668E+04   -0.19177E-04   -0.68004E-04 17360   0.438E-02    0.279E-02
DAV:   3    -0.161824601295E+04    0.33733E-04   -0.18733E-04 17354   0.255E-02    0.198E-02
DAV:   4    -0.161824599498E+04    0.17969E-04   -0.35379E-05  9464   0.105E-02    0.877E-03
DAV:   5    -0.161824598878E+04    0.61996E-05   -0.15538E-05  7168   0.769E-03
   8 F= -.16182460E+04 E0= -.16182438E+04  d E =-.493588E-03
       N       E                     dE             d eps       ncg     rms          rms(c)
DAV:   1    -0.161824629744E+04   -0.30245E-03   -0.49876E-02 12178   0.285E-01    0.310E-02
DAV:   2    -0.161824633430E+04   -0.36861E-04   -0.47822E-04 17688   0.325E-02    0.231E-02
DAV:   3    -0.161824632485E+04    0.94496E-05   -0.76413E-05 14406   0.172E-02    0.177E-02
DAV:   4    -0.161824632836E+04   -0.35090E-05   -0.34859E-05  8728   0.926E-03    0.322E-03
DAV:   5    -0.161824632935E+04   -0.99102E-06   -0.63699E-06  6800   0.575E-03
   9 F= -.16182463E+04 E0= -.16182441E+04  d E =-.340565E-03
       N       E                     dE             d eps       ncg     rms          rms(c)
DAV:   1    -0.161824642328E+04   -0.94927E-04   -0.21291E-03 12208   0.704E-02    0.227E-02
DAV:   2    -0.161824637940E+04    0.43880E-04   -0.48240E-05 10448   0.107E-02    0.107E-02
DAV:   3    -0.161824636318E+04    0.16228E-04   -0.16526E-05  6704   0.766E-03    0.588E-03
DAV:   4    -0.161824635425E+04    0.89298E-05   -0.59362E-06  6560   0.599E-03    0.267E-03
DAV:   5    -0.161824634937E+04    0.48778E-05   -0.37636E-06  6464   0.380E-03
  10 F= -.16182463E+04 E0= -.16182442E+04  d E =-.200214E-04
       N       E                     dE             d eps       ncg     rms          rms(c)
DAV:   1    -0.161824652816E+04   -0.17392E-03   -0.19133E-02 12178   0.176E-01    0.193E-02
DAV:   2    -0.161824654256E+04   -0.14401E-04   -0.16713E-04 17400   0.182E-02    0.140E-02
DAV:   3    -0.161824654113E+04    0.14368E-05   -0.16028E-05  8558   0.886E-03    0.106E-02
DAV:   4    -0.161824654492E+04   -0.37910E-05   -0.13575E-05  6648   0.648E-03    0.192E-03
DAV:   5    -0.161824654576E+04   -0.84301E-06   -0.32901E-06  6450   0.404E-03
  11 F= -.16182465E+04 E0= -.16182444E+04  d E =-.196392E-03
       N       E                     dE             d eps       ncg     rms          rms(c)
DAV:   1    -0.161824670015E+04   -0.15523E-03   -0.20101E-02 12160   0.180E-01    0.182E-02
DAV:   2    -0.161824670548E+04   -0.53251E-05   -0.17263E-04 17288   0.181E-02    0.138E-02
DAV:   3    -0.161824670107E+04    0.44095E-05   -0.14481E-05  8234   0.816E-03    0.105E-02
DAV:   4    -0.161824669411E+04    0.69554E-05   -0.13209E-05  6624   0.639E-03    0.206E-03
DAV:   5    -0.161824669372E+04    0.39688E-06   -0.33068E-06  6456   0.419E-03
  12 F= -.16182467E+04 E0= -.16182445E+04  d E =-.147954E-03
       N       E                     dE             d eps       ncg     rms          rms(c)
DAV:   1    -0.161824675037E+04   -0.56254E-04   -0.48541E-03 12208   0.911E-02    0.143E-02
DAV:   2    -0.161824675610E+04   -0.57349E-05   -0.37858E-05  9520   0.958E-03    0.821E-03
DAV:   3    -0.161824676148E+04   -0.53744E-05   -0.12191E-05  6688   0.608E-03    0.406E-03
DAV:   4    -0.161824676525E+04   -0.37701E-05   -0.53570E-06  6392   0.499E-03    0.182E-03
DAV:   5    -0.161824676717E+04   -0.19249E-05   -0.28371E-06  6344   0.329E-03
  13 F= -.16182468E+04 E0= -.16182446E+04  d E =-.734557E-04
       N       E                     dE             d eps       ncg     rms          rms(c)
DAV:   1    -0.161824685079E+04   -0.85539E-04   -0.47380E-03 12208   0.890E-02    0.132E-02
DAV:   2    -0.161824683907E+04    0.11712E-04   -0.42476E-05 10488   0.970E-03    0.792E-03
DAV:   3    -0.161824683389E+04    0.51874E-05   -0.11157E-05  6800   0.621E-03    0.500E-03
DAV:   4    -0.161824682905E+04    0.48391E-05   -0.47536E-06  6328   0.478E-03    0.213E-03
DAV:   5    -0.161824682691E+04    0.21362E-05   -0.27215E-06  6312   0.310E-03
  14 F= -.16182468E+04 E0= -.16182447E+04  d E =-.597391E-04
       N       E                     dE             d eps       ncg     rms          rms(c)
DAV:   1    -0.161824689616E+04   -0.67116E-04   -0.73714E-03 12172   0.109E-01    0.112E-02
DAV:   2    -0.161824690197E+04   -0.58105E-05   -0.60168E-05 12712   0.104E-02    0.844E-03
DAV:   3    -0.161824690273E+04   -0.75396E-06   -0.92173E-06  6542   0.533E-03    0.428E-03
DAV:   4    -0.161824690424E+04   -0.15171E-05   -0.41521E-06  6344   0.427E-03    0.120E-03
DAV:   5    -0.161824690410E+04    0.14189E-06   -0.14320E-06  6296   0.254E-03
  15 F= -.16182469E+04 E0= -.16182448E+04  d E =-.771919E-04
       N       E                     dE             d eps       ncg     rms          rms(c)
DAV:   1    -0.161824697578E+04   -0.71541E-04   -0.84998E-03 12172   0.117E-01    0.127E-02
DAV:   2    -0.161824697299E+04    0.27950E-05   -0.71933E-05 14208   0.113E-02    0.902E-03
DAV:   3    -0.161824696882E+04    0.41647E-05   -0.92408E-06  6666   0.524E-03    0.544E-03
DAV:   4    -0.161824696481E+04    0.40167E-05   -0.42307E-06  6344   0.443E-03    0.169E-03
DAV:   5    -0.161824696398E+04    0.82567E-06   -0.17609E-06  6306   0.302E-03
  16 F= -.16182470E+04 E0= -.16182448E+04  d E =-.598806E-04
       N       E                     dE             d eps       ncg     rms          rms(c)
DAV:   1    -0.161824697890E+04   -0.14091E-04   -0.61903E-04 12208   0.338E-02    0.744E-03
DAV:   2    -0.161824698307E+04   -0.41665E-05   -0.66586E-06  6272   0.407E-03    0.384E-03
DAV:   3    -0.161824698664E+04   -0.35716E-05   -0.29404E-06  6272   0.278E-03    0.176E-03
DAV:   4    -0.161824698859E+04   -0.19560E-05   -0.13218E-06  6272   0.221E-03    0.915E-04
DAV:   5    -0.161824698966E+04   -0.10629E-05   -0.66700E-07  6272   0.157E-03
  17 F= -.16182470E+04 E0= -.16182448E+04  d E =-.256737E-04
       N       E                     dE             d eps       ncg     rms          rms(c)
DAV:   1    -0.161824703775E+04   -0.49159E-04   -0.46854E-03 12172   0.870E-02    0.903E-03
DAV:   2    -0.161824703593E+04    0.18253E-05   -0.26892E-05  8760   0.828E-03    0.641E-03
DAV:   3    -0.161824703344E+04    0.24859E-05   -0.90751E-06  6430   0.456E-03    0.249E-03
DAV:   4    -0.161824703246E+04    0.97983E-06   -0.43866E-06  6272   0.372E-03    0.916E-04
DAV:   5    -0.161824703264E+04   -0.17505E-06   -0.23107E-06  6260   0.284E-03
  18 F= -.16182470E+04 E0= -.16182449E+04  d E =-.429804E-04
       N       E                     dE             d eps       ncg     rms          rms(c)
DAV:   1    -0.161824707135E+04   -0.38892E-04   -0.59371E-03 12172   0.980E-02    0.105E-02
DAV:   2    -0.161824707750E+04   -0.61437E-05   -0.49210E-05 11592   0.964E-03    0.761E-03
DAV:   3    -0.161824707979E+04   -0.22929E-05   -0.92416E-06  6434   0.486E-03    0.297E-03
DAV:   4    -0.161824708190E+04   -0.21137E-05   -0.35020E-06  6272   0.354E-03    0.117E-03
DAV:   5    -0.161824708196E+04   -0.54076E-07   -0.15804E-06  6272   0.263E-03
  19 F= -.16182471E+04 E0= -.16182449E+04  d E =-.493214E-04
       N       E                     dE             d eps       ncg     rms          rms(c)
DAV:   1    -0.161824709199E+04   -0.10088E-04   -0.10247E-04 11960   0.160E-02    0.556E-03
DAV:   2    -0.161824708555E+04    0.64414E-05   -0.27089E-06  6272   0.268E-03    0.255E-03
DAV:   3    -0.161824708230E+04    0.32541E-05   -0.12353E-06  6272   0.198E-03    0.125E-03
DAV:   4    -0.161824708065E+04    0.16480E-05   -0.51136E-07  6272   0.154E-03    0.560E-04
DAV:   5    -0.161824707975E+04    0.89856E-06   -0.24750E-07  6272   0.100E-03
  20 F= -.16182471E+04 E0= -.16182449E+04  d E =0.220812E-05
       N       E                     dE             d eps       ncg     rms          rms(c)
DAV:   1    -0.161824710903E+04   -0.28383E-04   -0.34256E-03 12148   0.743E-02    0.724E-03
DAV:   2    -0.161824711042E+04   -0.13926E-05   -0.18001E-05  6632   0.689E-03    0.531E-03
DAV:   3    -0.161824711088E+04   -0.45939E-06   -0.68547E-06  6352   0.384E-03    0.118E-03
DAV:   4    -0.161824711134E+04   -0.45227E-06   -0.29811E-06  6272   0.298E-03    0.808E-04
DAV:   5    -0.161824711136E+04   -0.27825E-07   -0.15993E-06  6242   0.222E-03
  21 F= -.16182471E+04 E0= -.16182450E+04  d E =-.316135E-04
       N       E                     dE             d eps       ncg     rms          rms(c)
DAV:   1    -0.161824717318E+04   -0.61841E-04   -0.24207E-02 12052   0.198E-01    0.197E-02
DAV:   2    -0.161824718021E+04   -0.70347E-05   -0.20949E-04 17424   0.188E-02    0.148E-02
DAV:   3    -0.161824717201E+04    0.81988E-05   -0.14711E-05  7616   0.630E-03    0.719E-03
DAV:   4    -0.161824716802E+04    0.39910E-05   -0.80839E-06  6912   0.609E-03    0.220E-03
DAV:   5    -0.161824716777E+04    0.25474E-06   -0.23218E-06  6426   0.413E-03
  22 F= -.16182472E+04 E0= -.16182451E+04  d E =-.564037E-04
       N       E                     dE             d eps       ncg     rms          rms(c)
DAV:   1    -0.161824712998E+04    0.38043E-04   -0.94552E-03 12100   0.124E-01    0.142E-02
DAV:   2    -0.161824713677E+04   -0.67889E-05   -0.68548E-05 13584   0.116E-02    0.974E-03
DAV:   3    -0.161824713860E+04   -0.18377E-05   -0.99494E-06  6260   0.512E-03    0.492E-03
DAV:   4    -0.161824714165E+04   -0.30466E-05   -0.42147E-06  6272   0.432E-03    0.164E-03
DAV:   5    -0.161824714213E+04   -0.47771E-06   -0.16839E-06  6272   0.319E-03
  23 F= -.16182471E+04 E0= -.16182450E+04  d E =0.256376E-04
       N       E                     dE             d eps       ncg     rms          rms(c)
DAV:   1    -0.161824717414E+04   -0.32493E-04   -0.59550E-03 12100   0.980E-02    0.942E-03
DAV:   2    -0.161824717415E+04   -0.22051E-08   -0.29142E-05  7704   0.894E-03    0.688E-03
DAV:   3    -0.161824717222E+04    0.19303E-05   -0.97232E-06  6236   0.468E-03    0.147E-03
DAV:   4    -0.161824717227E+04   -0.50228E-07   -0.38001E-06  6272   0.341E-03    0.101E-03
DAV:   5    -0.161824717244E+04   -0.17165E-06   -0.19037E-06  6272   0.253E-03
  24 F= -.16182472E+04 E0= -.16182450E+04  d E =-.303092E-04
       N       E                     dE             d eps       ncg     rms          rms(c)
DAV:   1    -0.161824721323E+04   -0.40966E-04   -0.27419E-02 12040   0.210E-01    0.202E-02
DAV:   2    -0.161824722826E+04   -0.15032E-04   -0.23296E-04 17560   0.197E-02    0.156E-02
DAV:   3    -0.161824722216E+04    0.61045E-05   -0.19931E-05  7522   0.701E-03    0.438E-03
DAV:   4    -0.161824722220E+04   -0.45021E-07   -0.61875E-06  6688   0.556E-03    0.239E-03
DAV:   5    -0.161824722194E+04    0.26527E-06   -0.16693E-06  6384   0.331E-03
  25 F= -.16182472E+04 E0= -.16182451E+04  d E =-.495012E-04
       N       E                     dE             d eps       ncg     rms          rms(c)
DAV:   1    -0.161824724138E+04   -0.19174E-04   -0.11978E-02 12052   0.140E-01    0.153E-02
DAV:   2    -0.161824723780E+04    0.35793E-05   -0.10299E-04 15480   0.134E-02    0.107E-02
DAV:   3    -0.161824723146E+04    0.63433E-05   -0.10739E-05  7000   0.544E-03    0.608E-03
DAV:   4    -0.161824722649E+04    0.49705E-05   -0.52195E-06  6440   0.490E-03    0.197E-03
DAV:   5    -0.161824722553E+04    0.95590E-06   -0.20115E-06  6368   0.350E-03
  26 F= -.16182472E+04 E0= -.16182451E+04  d E =-.359015E-05
       N       E                     dE             d eps       ncg     rms          rms(c)
DAV:   1    -0.161824721953E+04    0.69537E-05   -0.40261E-03 12064   0.814E-02    0.103E-02
DAV:   2    -0.161824722374E+04   -0.42068E-05   -0.21963E-05  6632   0.781E-03    0.648E-03
DAV:   3    -0.161824722711E+04   -0.33663E-05   -0.74425E-06  6218   0.422E-03    0.273E-03
DAV:   4    -0.161824722945E+04   -0.23455E-05   -0.33564E-06  6272   0.331E-03    0.133E-03
DAV:   5    -0.161824723002E+04   -0.56852E-06   -0.16283E-06  6272   0.255E-03
  27 F= -.16182472E+04 E0= -.16182451E+04  d E =-.448927E-05
       N       E                     dE             d eps       ncg     rms          rms(c)
DAV:   1    -0.161824723478E+04   -0.53322E-05   -0.79675E-04 12160   0.360E-02    0.324E-03
DAV:   2    -0.161824723480E+04   -0.17322E-07   -0.32932E-06  6236   0.304E-03    0.237E-03
DAV:   3    -0.161824723460E+04    0.20279E-06   -0.89253E-07  6224   0.147E-03    0.735E-04
DAV:   4    -0.161824723456E+04    0.32462E-07   -0.36493E-07  6236   0.115E-03    0.368E-04
DAV:   5    -0.161824723457E+04   -0.63851E-08   -0.15866E-07  6236   0.768E-04
  28 F= -.16182472E+04 E0= -.16182451E+04  d E =-.455213E-05
       N       E                     dE             d eps       ncg     rms          rms(c)
DAV:   1    -0.161824724105E+04   -0.64878E-05   -0.27507E-03 12100   0.666E-02    0.644E-03
DAV:   2    -0.161824724083E+04    0.22753E-06   -0.14665E-05  6360   0.624E-03    0.470E-03
DAV:   3    -0.161824723982E+04    0.10098E-05   -0.52485E-06  6242   0.343E-03    0.142E-03
DAV:   4    -0.161824723965E+04    0.16951E-06   -0.24711E-06  6272   0.276E-03    0.671E-04
DAV:   5    -0.161824723980E+04   -0.15438E-06   -0.13045E-06  6248   0.205E-03
  29 F= -.16182472E+04 E0= -.16182451E+04  d E =-.522892E-05
