       N       E                     dE             d eps       ncg     rms          rms(c)
DAV:   1     0.271906617232E+04    0.27191E+04   -0.31599E+05 12500   0.145E+03
DAV:   2    -0.118942964104E+04   -0.39085E+04   -0.37388E+04 14258   0.344E+02
DAV:   3    -0.170461883965E+04   -0.51519E+03   -0.49058E+03 19080   0.833E+01
DAV:   4    -0.173044062597E+04   -0.25822E+02   -0.25098E+02 17616   0.187E+01
DAV:   5    -0.173148137667E+04   -0.10408E+01   -0.10243E+01 19568   0.377E+00    0.468E+01
DAV:   6    -0.167207421295E+04    0.59407E+02   -0.13952E+02 18152   0.165E+01    0.246E+01
DAV:   7    -0.165690025174E+04    0.15174E+02   -0.89210E+01 18760   0.160E+01    0.155E+01
DAV:   8    -0.164560776720E+04    0.11292E+02   -0.49376E+01 17952   0.123E+01    0.441E+00
DAV:   9    -0.164520195618E+04    0.40581E+00   -0.14374E+01 18016   0.583E+00    0.221E+00
DAV:  10    -0.164519018914E+04    0.11767E-01   -0.18021E+00 15888   0.200E+00    0.154E+00
DAV:  11    -0.164513523071E+04    0.54958E-01   -0.42057E-01 16960   0.865E-01    0.695E-01
DAV:  12    -0.164512375319E+04    0.11478E-01   -0.70701E-02 17016   0.421E-01    0.313E-01
DAV:  13    -0.164512051290E+04    0.32403E-02   -0.17276E-02 17024   0.268E-01    0.145E-01
DAV:  14    -0.164512031340E+04    0.19950E-03   -0.74552E-03 17200   0.120E-01    0.613E-02
DAV:  15    -0.164512035802E+04   -0.44623E-04   -0.11243E-03 15248   0.529E-02    0.275E-02
DAV:  16    -0.164512037354E+04   -0.15515E-04   -0.23288E-04 17280   0.227E-02    0.171E-02
DAV:  17    -0.164512036219E+04    0.11344E-04   -0.55870E-05 12472   0.138E-02    0.830E-03
DAV:  18    -0.164512035622E+04    0.59729E-05   -0.24326E-05  8648   0.784E-03
   1 F= -.16451204E+04 E0= -.16451209E+04  d E =-.164512E+04
       N       E                     dE             d eps       ncg     rms          rms(c)
DAV:   1    -0.164577659707E+04   -0.65623E+00   -0.15611E+02 12460   0.157E+01    0.244E+00
DAV:   2    -0.164573118260E+04    0.45414E-01   -0.30614E+00 17168   0.265E+00    0.142E+00
DAV:   3    -0.164566756256E+04    0.63620E-01   -0.57835E-01 17472   0.125E+00    0.101E+00
DAV:   4    -0.164564076212E+04    0.26800E-01   -0.13552E-01 17592   0.689E-01    0.557E-01
DAV:   5    -0.164563153884E+04    0.92233E-02   -0.74444E-02 15504   0.454E-01    0.172E-01
DAV:   6    -0.164563168104E+04   -0.14220E-03   -0.12238E-02 16464   0.167E-01    0.121E-01
DAV:   7    -0.164563149521E+04    0.18583E-03   -0.23070E-03 15616   0.681E-02    0.672E-02
DAV:   8    -0.164563153730E+04   -0.42090E-04   -0.96372E-04 15656   0.474E-02    0.301E-02
DAV:   9    -0.164563150193E+04    0.35376E-04   -0.17731E-04 15936   0.270E-02    0.156E-02
DAV:  10    -0.164563149267E+04    0.92628E-05   -0.78367E-05 14512   0.111E-02
   2 F= -.16456315E+04 E0= -.16456372E+04  d E =-.511136E+00
       N       E                     dE             d eps       ncg     rms          rms(c)
DAV:   1    -0.164587766004E+04   -0.24616E+00   -0.15456E+01 12460   0.607E+00    0.197E+00
DAV:   2    -0.164569729181E+04    0.18037E+00   -0.28565E-01 14320   0.795E-01    0.963E-01
DAV:   3    -0.164564981124E+04    0.47481E-01   -0.12807E-01 14689   0.556E-01    0.364E-01
DAV:   4    -0.164564294993E+04    0.68613E-02   -0.39968E-02 15288   0.395E-01    0.114E-01
DAV:   5    -0.164564274511E+04    0.20483E-03   -0.11167E-02 15393   0.194E-01    0.601E-02
DAV:   6    -0.164564303601E+04   -0.29090E-03   -0.21040E-03 17040   0.627E-02    0.437E-02
DAV:   7    -0.164564314427E+04   -0.10826E-03   -0.31259E-04 16688   0.244E-02    0.233E-02
DAV:   8    -0.164564322631E+04   -0.82043E-04   -0.10221E-04 14552   0.158E-02    0.112E-02
DAV:   9    -0.164564324773E+04   -0.21418E-04   -0.31580E-05  9544   0.954E-03    0.517E-03
DAV:  10    -0.164564325809E+04   -0.10363E-04   -0.18046E-05  7608   0.581E-03    0.343E-03
DAV:  11    -0.164564325764E+04    0.45343E-06   -0.45931E-06  7280   0.470E-03
   3 F= -.16456433E+04 E0= -.16456439E+04  d E =-.117650E-01
       N       E                     dE             d eps       ncg     rms          rms(c)
DAV:   1    -0.164588088315E+04   -0.23763E+00   -0.67955E+00 12460   0.376E+00    0.106E+00
DAV:   2    -0.164583231544E+04    0.48568E-01   -0.11381E-01 15752   0.583E-01    0.556E-01
DAV:   3    -0.164582004593E+04    0.12270E-01   -0.54880E-02 16304   0.410E-01    0.352E-01
DAV:   4    -0.164581221754E+04    0.78284E-02   -0.29115E-02 16128   0.332E-01    0.752E-02
DAV:   5    -0.164581220883E+04    0.87037E-05   -0.67114E-03 14952   0.135E-01    0.495E-02
DAV:   6    -0.164581228698E+04   -0.78151E-04   -0.94667E-04 16576   0.441E-02    0.336E-02
DAV:   7    -0.164581230963E+04   -0.22646E-04   -0.16118E-04 15960   0.177E-02    0.188E-02
DAV:   8    -0.164581231902E+04   -0.93893E-05   -0.80438E-05 14600   0.135E-02
   4 F= -.16458123E+04 E0= -.16458158E+04  d E =-.169061E+00
       N       E                     dE             d eps       ncg     rms          rms(c)
DAV:   1    -0.164581780211E+04   -0.54925E-02   -0.93671E-01 12510   0.121E+00    0.143E-01
DAV:   2    -0.164581827451E+04   -0.47240E-03   -0.12085E-02 16456   0.200E-01    0.969E-02
DAV:   3    -0.164581796657E+04    0.30794E-03   -0.25683E-03 17876   0.889E-02    0.723E-02
DAV:   4    -0.164581784577E+04    0.12079E-03   -0.65502E-04 17064   0.430E-02    0.301E-02
DAV:   5    -0.164581783982E+04    0.59539E-05   -0.24188E-04 14787   0.234E-02    0.108E-02
DAV:   6    -0.164581783516E+04    0.46616E-05   -0.27608E-05  9000   0.901E-03
   5 F= -.16458178E+04 E0= -.16458213E+04  d E =-.551614E-02
       N       E                     dE             d eps       ncg     rms          rms(c)
DAV:   1    -0.164581907463E+04   -0.12348E-02   -0.22499E-01 12555   0.593E-01    0.674E-02
DAV:   2    -0.164581919553E+04   -0.12090E-03   -0.27046E-03 16008   0.103E-01    0.472E-02
DAV:   3    -0.164581911164E+04    0.83889E-04   -0.60658E-04 18558   0.443E-02    0.353E-02
DAV:   4    -0.164581907581E+04    0.35839E-04   -0.16935E-04 16632   0.211E-02    0.125E-02
DAV:   5    -0.164581907193E+04    0.38798E-05   -0.42492E-05 10840   0.102E-02
   6 F= -.16458191E+04 E0= -.16458226E+04  d E =-.123677E-02
       N       E                     dE             d eps       ncg     rms          rms(c)
DAV:   1    -0.164581949546E+04   -0.41965E-03   -0.14016E-01 12560   0.468E-01    0.505E-02
DAV:   2    -0.164581956772E+04   -0.72262E-04   -0.15177E-03 15744   0.781E-02    0.366E-02
DAV:   3    -0.164581951529E+04    0.52429E-04   -0.34028E-04 18736   0.340E-02    0.274E-02
DAV:   4    -0.164581949293E+04    0.22366E-04   -0.11132E-04 14944   0.178E-02    0.557E-03
DAV:   5    -0.164581949245E+04    0.47927E-06   -0.13095E-05  7872   0.673E-03
   7 F= -.16458195E+04 E0= -.16458230E+04  d E =-.420521E-03
       N       E                     dE             d eps       ncg     rms          rms(c)
DAV:   1    -0.164581951034E+04   -0.17410E-04   -0.29281E-03 12760   0.703E-02    0.125E-02
DAV:   2    -0.164581951580E+04   -0.54677E-05   -0.26106E-05  8448   0.850E-03    0.702E-03
DAV:   3    -0.164581952168E+04   -0.58772E-05   -0.97630E-06  7248   0.524E-03    0.263E-03
DAV:   4    -0.164581952482E+04   -0.31377E-05   -0.41317E-06  6992   0.431E-03    0.112E-03
DAV:   5    -0.164581952578E+04   -0.95959E-06   -0.19934E-06  6976   0.261E-03
   8 F= -.16458195E+04 E0= -.16458230E+04  d E =-.333312E-04
       N       E                     dE             d eps       ncg     rms          rms(c)
DAV:   1    -0.164581955517E+04   -0.30351E-04   -0.16462E-03 12718   0.521E-02    0.882E-03
DAV:   2    -0.164581954696E+04    0.82071E-05   -0.13429E-05  6912   0.651E-03    0.518E-03
DAV:   3    -0.164581954317E+04    0.37924E-05   -0.50859E-06  6859   0.461E-03    0.302E-03
DAV:   4    -0.164581953932E+04    0.38518E-05   -0.30725E-06  6704   0.356E-03    0.809E-04
DAV:   5    -0.164581953899E+04    0.32763E-06   -0.14998E-06  6683   0.233E-03
   9 F= -.16458195E+04 E0= -.16458230E+04  d E =-.132127E-04
       N       E                     dE             d eps       ncg     rms          rms(c)
DAV:   1    -0.164581955010E+04   -0.10779E-04   -0.13849E-03 12670   0.466E-02    0.532E-03
DAV:   2    -0.164581955191E+04   -0.18107E-05   -0.91336E-06  6776   0.499E-03    0.374E-03
DAV:   3    -0.164581955344E+04   -0.15276E-05   -0.37784E-06  6656   0.292E-03    0.823E-04
DAV:   4    -0.164581955398E+04   -0.54342E-06   -0.17401E-06  6680   0.211E-03    0.374E-04
DAV:   5    -0.164581955398E+04   -0.22737E-08   -0.96781E-07  6680   0.165E-03
  10 F= -.16458196E+04 E0= -.16458230E+04  d E =-.149905E-04
       N       E                     dE             d eps       ncg     rms          rms(c)
DAV:   1    -0.164581956542E+04   -0.11444E-04   -0.99460E-04 12638   0.397E-02    0.510E-03
DAV:   2    -0.164581956252E+04    0.29074E-05   -0.69802E-06  6737   0.443E-03    0.334E-03
DAV:   3    -0.164581956039E+04    0.21245E-05   -0.27184E-06  6625   0.270E-03    0.146E-03
DAV:   4    -0.164581955912E+04    0.12748E-05   -0.14360E-06  6617   0.219E-03    0.458E-04
DAV:   5    -0.164581955919E+04   -0.72475E-07   -0.78191E-07  6601   0.159E-03
  11 F= -.16458196E+04 E0= -.16458230E+04  d E =-.520742E-05
       N       E                     dE             d eps       ncg     rms          rms(c)
DAV:   1    -0.164581956070E+04   -0.15812E-05   -0.16233E-04 12446   0.168E-02    0.347E-03
DAV:   2    -0.164581956319E+04   -0.24917E-05   -0.18067E-06  6593   0.217E-03    0.193E-03
DAV:   3    -0.164581956526E+04   -0.20666E-05   -0.90041E-07  6577   0.151E-03    0.697E-04
DAV:   4    -0.164581956619E+04   -0.93843E-06   -0.42199E-07  6545   0.113E-03    0.286E-04
DAV:   5    -0.164581956640E+04   -0.20705E-06   -0.22296E-07  6545   0.809E-04
  12 F= -.16458196E+04 E0= -.16458230E+04  d E =-.721255E-05
       N       E                     dE             d eps       ncg     rms          rms(c)
DAV:   1    -0.164581957339E+04   -0.71959E-05   -0.65920E-04 12586   0.321E-02    0.347E-03
DAV:   2    -0.164581957269E+04    0.69678E-06   -0.39085E-06  6545   0.333E-03    0.248E-03
DAV:   3    -0.164581957181E+04    0.88155E-06   -0.14716E-06  6511   0.188E-03    0.698E-04
DAV:   4    -0.164581957152E+04    0.28884E-06   -0.70439E-07  6497   0.146E-03    0.294E-04
DAV:   5    -0.164581957165E+04   -0.13184E-06   -0.38653E-07  6466   0.107E-03
  13 F= -.16458196E+04 E0= -.16458231E+04  d E =-.525355E-05
       N       E                     dE             d eps       ncg     rms          rms(c)
DAV:   1    -0.164581957580E+04   -0.42799E-05   -0.11069E-03 12560   0.417E-02    0.471E-03
DAV:   2    -0.164581957781E+04   -0.20024E-05   -0.66849E-06  6800   0.434E-03    0.328E-03
DAV:   3    -0.164581957974E+04   -0.19343E-05   -0.27061E-06  6547   0.245E-03    0.621E-04
DAV:   4    -0.164581958016E+04   -0.42435E-06   -0.11433E-06  6497   0.174E-03    0.343E-04
DAV:   5    -0.164581958012E+04    0.39320E-07   -0.62361E-07  6497   0.131E-03
  14 F= -.16458196E+04 E0= -.16458231E+04  d E =-.846976E-05
       N       E                     dE             d eps       ncg     rms          rms(c)
DAV:   1    -0.164581958302E+04   -0.28566E-05   -0.46307E-05 11668   0.101E-02    0.300E-03
DAV:   2    -0.164581957976E+04    0.32556E-05   -0.81711E-07  6434   0.151E-03    0.151E-03
DAV:   3    -0.164581957768E+04    0.20876E-05   -0.35092E-07  6434   0.994E-04    0.583E-04
DAV:   4    -0.164581957677E+04    0.90489E-06   -0.13979E-07  6434   0.801E-04    0.177E-04
DAV:   5    -0.164581957650E+04    0.27283E-06   -0.59738E-08  6424   0.444E-04
  15 F= -.16458196E+04 E0= -.16458231E+04  d E =0.362498E-05
       N       E                     dE             d eps       ncg     rms          rms(c)
DAV:   1    -0.164581957954E+04   -0.27678E-05   -0.45033E-04 12520   0.265E-02    0.277E-03
DAV:   2    -0.164581958020E+04   -0.65682E-06   -0.24486E-06  6404   0.264E-03    0.199E-03
DAV:   3    -0.164581958092E+04   -0.72442E-06   -0.97939E-07  6396   0.143E-03    0.274E-04
DAV:   4    -0.164581958095E+04   -0.24491E-07   -0.36470E-07  6380   0.923E-04    0.167E-04
DAV:   5    -0.164581958094E+04    0.72650E-08   -0.19733E-07  6380   0.698E-04
  16 F= -.16458196E+04 E0= -.16458231E+04  d E =-.443911E-05
       N       E                     dE             d eps       ncg     rms          rms(c)
DAV:   1    -0.164581958578E+04   -0.48386E-05   -0.11312E-03 12560   0.420E-02    0.442E-03
DAV:   2    -0.164581958509E+04    0.69888E-06   -0.64513E-06  6404   0.430E-03    0.318E-03
DAV:   3    -0.164581958392E+04    0.11647E-05   -0.24213E-06  6380   0.235E-03    0.610E-04
DAV:   4    -0.164581958378E+04    0.13754E-06   -0.10444E-06  6380   0.171E-03    0.342E-04
DAV:   5    -0.164581958392E+04   -0.13705E-06   -0.56968E-07  6380   0.129E-03
  17 F= -.16458196E+04 E0= -.16458231E+04  d E =-.298180E-05
       N       E                     dE             d eps       ncg     rms          rms(c)
DAV:   1    -0.164581958017E+04    0.36139E-05   -0.22413E-04 12360   0.195E-02    0.347E-03
DAV:   2    -0.164581958253E+04   -0.23559E-05   -0.13578E-06  6380   0.196E-03    0.197E-03
DAV:   3    -0.164581958436E+04   -0.18352E-05   -0.54211E-07  6380   0.121E-03    0.793E-04
DAV:   4    -0.164581958533E+04   -0.97139E-06   -0.20293E-07  6380   0.928E-04    0.279E-04
DAV:   5    -0.164581958552E+04   -0.18923E-06   -0.73329E-08  6380   0.560E-04
  18 F= -.16458196E+04 E0= -.16458231E+04  d E =-.160076E-05
       N       E                     dE             d eps       ncg     rms          rms(c)
DAV:   1    -0.164581958935E+04   -0.40211E-05   -0.41381E-04 12472   0.255E-02    0.280E-03
DAV:   2    -0.164581958827E+04    0.10805E-05   -0.21680E-06  6380   0.251E-03    0.194E-03
DAV:   3    -0.164581958716E+04    0.11148E-05   -0.72341E-07  6380   0.130E-03    0.560E-04
DAV:   4    -0.164581958680E+04    0.36235E-06   -0.30445E-07  6380   0.969E-04    0.210E-04
DAV:   5    -0.164581958688E+04   -0.84157E-07   -0.15377E-07  6380   0.708E-04
  19 F= -.16458196E+04 E0= -.16458231E+04  d E =-.135833E-05
       N       E                     dE             d eps       ncg     rms          rms(c)
DAV:   1    -0.164581958819E+04   -0.13947E-05   -0.29837E-04 12456   0.215E-02    0.227E-03
DAV:   2    -0.164581958848E+04   -0.29071E-06   -0.18083E-06  6380   0.228E-03    0.165E-03
DAV:   3    -0.164581958875E+04   -0.26972E-06   -0.77233E-07  6380   0.129E-03    0.267E-04
DAV:   4    -0.164581958876E+04   -0.12623E-07   -0.30554E-07  6380   0.848E-04    0.149E-04
DAV:   5    -0.164581958877E+04   -0.56421E-08   -0.16978E-07  6380   0.648E-04
  20 F= -.16458196E+04 E0= -.16458231E+04  d E =-.188928E-05
