       N       E                     dE             d eps       ncg     rms          rms(c)
DAV:   1     0.271913989299E+04    0.27191E+04   -0.31600E+05 12500   0.145E+03
DAV:   2    -0.119065199098E+04   -0.39098E+04   -0.37412E+04 14274   0.344E+02
DAV:   3    -0.170434830059E+04   -0.51370E+03   -0.48899E+03 19024   0.832E+01
DAV:   4    -0.173017677046E+04   -0.25828E+02   -0.25097E+02 17480   0.188E+01
DAV:   5    -0.173125984773E+04   -0.10831E+01   -0.10664E+01 19592   0.388E+00    0.467E+01
DAV:   6    -0.167141137572E+04    0.59848E+02   -0.13131E+02 18056   0.157E+01    0.243E+01
DAV:   7    -0.165571952991E+04    0.15692E+02   -0.82470E+01 18144   0.152E+01    0.144E+01
DAV:   8    -0.164573532794E+04    0.99842E+01   -0.43398E+01 17616   0.121E+01    0.413E+00
DAV:   9    -0.164539298712E+04    0.34234E+00   -0.12479E+01 17896   0.554E+00    0.210E+00
DAV:  10    -0.164537844223E+04    0.14545E-01   -0.15926E+00 15864   0.188E+00    0.147E+00
DAV:  11    -0.164533024428E+04    0.48198E-01   -0.44392E-01 16936   0.869E-01    0.670E-01
DAV:  12    -0.164531811174E+04    0.12133E-01   -0.59279E-02 17656   0.362E-01    0.288E-01
DAV:  13    -0.164531564971E+04    0.24620E-02   -0.14877E-02 17280   0.213E-01    0.117E-01
DAV:  14    -0.164531563997E+04    0.97413E-05   -0.49195E-03 15904   0.109E-01    0.536E-02
DAV:  15    -0.164531568701E+04   -0.47042E-04   -0.95684E-04 15232   0.516E-02    0.249E-02
DAV:  16    -0.164531569014E+04   -0.31249E-05   -0.18452E-04 16256   0.213E-02    0.132E-02
DAV:  17    -0.164531568051E+04    0.96253E-05   -0.39573E-05 10064   0.117E-02
   1 F= -.16453157E+04 E0= -.16453184E+04  d E =-.164532E+04
       N       E                     dE             d eps       ncg     rms          rms(c)
DAV:   1    -0.164589986158E+04   -0.58417E+00   -0.14943E+02 12460   0.153E+01    0.243E+00
DAV:   2    -0.164585079246E+04    0.49069E-01   -0.29353E+00 17200   0.251E+00    0.137E+00
DAV:   3    -0.164580056300E+04    0.50229E-01   -0.49633E-01 17152   0.115E+00    0.959E-01
DAV:   4    -0.164577688543E+04    0.23678E-01   -0.12093E-01 17144   0.668E-01    0.493E-01
DAV:   5    -0.164576974445E+04    0.71410E-02   -0.60754E-02 15744   0.429E-01    0.163E-01
DAV:   6    -0.164576991014E+04   -0.16569E-03   -0.11351E-02 16184   0.165E-01    0.114E-01
DAV:   7    -0.164576976954E+04    0.14060E-03   -0.22822E-03 15648   0.662E-02    0.621E-02
DAV:   8    -0.164576981084E+04   -0.41299E-04   -0.78593E-04 15536   0.431E-02    0.270E-02
DAV:   9    -0.164576978183E+04    0.29007E-04   -0.15224E-04 15888   0.249E-02    0.138E-02
DAV:  10    -0.164576977384E+04    0.79877E-05   -0.65509E-05 13272   0.104E-02
   2 F= -.16457698E+04 E0= -.16457790E+04  d E =-.454093E+00
       N       E                     dE             d eps       ncg     rms          rms(c)
DAV:   1    -0.164601839054E+04   -0.24861E+00   -0.14890E+01 12460   0.596E+00    0.195E+00
DAV:   2    -0.164584146794E+04    0.17692E+00   -0.28158E-01 14368   0.783E-01    0.948E-01
DAV:   3    -0.164579449969E+04    0.46968E-01   -0.12086E-01 14572   0.538E-01    0.331E-01
DAV:   4    -0.164578922706E+04    0.52726E-02   -0.34565E-02 15592   0.359E-01    0.107E-01
DAV:   5    -0.164578900894E+04    0.21812E-03   -0.90427E-03 15420   0.180E-01    0.560E-02
DAV:   6    -0.164578928984E+04   -0.28089E-03   -0.18704E-03 17368   0.579E-02    0.399E-02
DAV:   7    -0.164578939660E+04   -0.10676E-03   -0.25661E-04 15739   0.230E-02    0.206E-02
DAV:   8    -0.164578946396E+04   -0.67364E-04   -0.80202E-05 14328   0.134E-02    0.957E-03
DAV:   9    -0.164578948455E+04   -0.20591E-04   -0.25711E-05  8814   0.870E-03    0.422E-03
DAV:  10    -0.164578949172E+04   -0.71616E-05   -0.11387E-05  7528   0.500E-03
   3 F= -.16457895E+04 E0= -.16457924E+04  d E =-.197179E-01
       N       E                     dE             d eps       ncg     rms          rms(c)
DAV:   1    -0.164600913330E+04   -0.21965E+00   -0.64334E+00 12460   0.365E+00    0.103E+00
DAV:   2    -0.164596387988E+04    0.45253E-01   -0.10452E-01 15944   0.539E-01    0.538E-01
DAV:   3    -0.164595231295E+04    0.11567E-01   -0.49926E-02 16491   0.385E-01    0.324E-01
DAV:   4    -0.164594555771E+04    0.67552E-02   -0.26032E-02 16304   0.318E-01    0.703E-02
DAV:   5    -0.164594558435E+04   -0.26637E-04   -0.60417E-03 15011   0.130E-01    0.487E-02
DAV:   6    -0.164594565103E+04   -0.66685E-04   -0.86682E-04 16512   0.423E-02    0.330E-02
DAV:   7    -0.164594567339E+04   -0.22360E-04   -0.16626E-04 16416   0.175E-02    0.175E-02
DAV:   8    -0.164594567987E+04   -0.64801E-05   -0.72064E-05 14568   0.129E-02
   4 F= -.16459457E+04 E0= -.16459523E+04  d E =-.156188E+00
       N       E                     dE             d eps       ncg     rms          rms(c)
DAV:   1    -0.164594990854E+04   -0.42351E-02   -0.79286E-01 12525   0.111E+00    0.137E-01
DAV:   2    -0.164595033147E+04   -0.42294E-03   -0.11399E-02 17080   0.178E-01    0.877E-02
DAV:   3    -0.164595014694E+04    0.18454E-03   -0.20335E-03 17545   0.788E-02    0.655E-02
DAV:   4    -0.164595005896E+04    0.87977E-04   -0.49795E-04 17560   0.392E-02    0.305E-02
DAV:   5    -0.164595005222E+04    0.67432E-05   -0.21882E-04 14728   0.216E-02    0.941E-03
DAV:   6    -0.164595004910E+04    0.31180E-05   -0.23323E-05  8608   0.813E-03
   5 F= -.16459500E+04 E0= -.16459567E+04  d E =-.436922E-02
       N       E                     dE             d eps       ncg     rms          rms(c)
DAV:   1    -0.164595084454E+04   -0.79232E-03   -0.15576E-01 12565   0.496E-01    0.660E-02
DAV:   2    -0.164595089780E+04   -0.53256E-04   -0.20253E-03 16328   0.809E-02    0.411E-02
DAV:   3    -0.164595086569E+04    0.32107E-04   -0.42622E-04 18265   0.357E-02    0.306E-02
DAV:   4    -0.164595085423E+04    0.11457E-04   -0.11617E-04 16040   0.191E-02    0.129E-02
DAV:   5    -0.164595086086E+04   -0.66257E-05   -0.37864E-05  9912   0.961E-03
   6 F= -.16459509E+04 E0= -.16459574E+04  d E =-.811759E-03
       N       E                     dE             d eps       ncg     rms          rms(c)
DAV:   1    -0.164595120202E+04   -0.34779E-03   -0.19124E-02 12664   0.198E-01    0.572E-02
DAV:   2    -0.164595100972E+04    0.19230E-03   -0.33637E-04 15256   0.317E-02    0.291E-02
DAV:   3    -0.164595095242E+04    0.57302E-04   -0.14197E-04 15568   0.218E-02    0.175E-02
DAV:   4    -0.164595090915E+04    0.43263E-04   -0.68275E-05 14896   0.171E-02    0.423E-03
DAV:   5    -0.164595090203E+04    0.71200E-05   -0.15839E-05  7192   0.672E-03
   7 F= -.16459509E+04 E0= -.16459576E+04  d E =-.411779E-04
       N       E                     dE             d eps       ncg     rms          rms(c)
DAV:   1    -0.164595117869E+04   -0.26954E-03   -0.17183E-02 12591   0.174E-01    0.355E-02
DAV:   2    -0.164595116904E+04    0.96546E-05   -0.18402E-04 15840   0.236E-02    0.198E-02
DAV:   3    -0.164595117200E+04   -0.29573E-05   -0.56038E-05 12838   0.134E-02    0.116E-02
DAV:   4    -0.164595118066E+04   -0.86631E-05   -0.24395E-05  9528   0.106E-02    0.246E-03
DAV:   5    -0.164595118362E+04   -0.29572E-05   -0.76292E-06  6984   0.493E-03
   8 F= -.16459512E+04 E0= -.16459578E+04  d E =-.281583E-03
       N       E                     dE             d eps       ncg     rms          rms(c)
DAV:   1    -0.164595126004E+04   -0.79381E-04   -0.92747E-03 12560   0.121E-01    0.145E-02
DAV:   2    -0.164595125859E+04    0.14466E-05   -0.92236E-05 15344   0.178E-02    0.101E-02
DAV:   3    -0.164595125428E+04    0.43155E-05   -0.15434E-05  8667   0.782E-03    0.756E-03
DAV:   4    -0.164595124824E+04    0.60412E-05   -0.11890E-05  6968   0.516E-03    0.156E-03
DAV:   5    -0.164595124846E+04   -0.21899E-06   -0.29544E-06  6912   0.347E-03
   9 F= -.16459512E+04 E0= -.16459579E+04  d E =-.648391E-04
       N       E                     dE             d eps       ncg     rms          rms(c)
DAV:   1    -0.164595127567E+04   -0.27435E-04   -0.45476E-03 12560   0.853E-02    0.116E-02
DAV:   2    -0.164595128138E+04   -0.57101E-05   -0.31873E-05  9568   0.107E-02    0.748E-03
DAV:   3    -0.164595128389E+04   -0.25044E-05   -0.94322E-06  7139   0.670E-03    0.476E-03
DAV:   4    -0.164595128897E+04   -0.50872E-05   -0.64098E-06  6760   0.479E-03    0.968E-04
DAV:   5    -0.164595128917E+04   -0.19712E-06   -0.26227E-06  6696   0.327E-03
  10 F= -.16459513E+04 E0= -.16459579E+04  d E =-.407145E-04
       N       E                     dE             d eps       ncg     rms          rms(c)
DAV:   1    -0.164595131519E+04   -0.26213E-04   -0.64839E-04 12586   0.352E-02    0.917E-03
DAV:   2    -0.164595130384E+04    0.11346E-04   -0.79583E-06  6680   0.498E-03    0.483E-03
DAV:   3    -0.164595129812E+04    0.57238E-05   -0.39266E-06  6601   0.419E-03    0.236E-03
DAV:   4    -0.164595129444E+04    0.36723E-05   -0.21545E-06  6680   0.328E-03    0.638E-04
DAV:   5    -0.164595129377E+04    0.67570E-06   -0.98132E-07  6680   0.188E-03
  11 F= -.16459513E+04 E0= -.16459580E+04  d E =-.459792E-05
       N       E                     dE             d eps       ncg     rms          rms(c)
DAV:   1    -0.164595131040E+04   -0.15952E-04   -0.19943E-03 12560   0.560E-02    0.648E-03
DAV:   2    -0.164595131292E+04   -0.25231E-05   -0.12301E-05  6912   0.623E-03    0.448E-03
DAV:   3    -0.164595131418E+04   -0.12570E-05   -0.39044E-06  6803   0.374E-03    0.252E-03
DAV:   4    -0.164595131596E+04   -0.17818E-05   -0.24594E-06  6584   0.302E-03    0.492E-04
DAV:   5    -0.164595131586E+04    0.10142E-06   -0.11917E-06  6571   0.207E-03
  12 F= -.16459513E+04 E0= -.16459580E+04  d E =-.220883E-04
       N       E                     dE             d eps       ncg     rms          rms(c)
DAV:   1    -0.164595133254E+04   -0.16586E-04   -0.19877E-03 12560   0.558E-02    0.636E-03
DAV:   2    -0.164595133046E+04    0.20828E-05   -0.12704E-05  7842   0.620E-03    0.441E-03
DAV:   3    -0.164595132907E+04    0.13874E-05   -0.42371E-06  6578   0.373E-03    0.254E-03
DAV:   4    -0.164595132733E+04    0.17406E-05   -0.26134E-06  6419   0.304E-03    0.485E-04
DAV:   5    -0.164595132763E+04   -0.29195E-06   -0.13151E-06  6419   0.214E-03
  13 F= -.16459513E+04 E0= -.16459580E+04  d E =-.117680E-04
       N       E                     dE             d eps       ncg     rms          rms(c)
DAV:   1    -0.164595132792E+04   -0.58448E-06   -0.13822E-04 12344   0.164E-02    0.441E-03
DAV:   2    -0.164595133106E+04   -0.31372E-05   -0.21431E-06  6404   0.230E-03    0.227E-03
DAV:   3    -0.164595133385E+04   -0.27972E-05   -0.11486E-06  6404   0.166E-03    0.750E-04
DAV:   4    -0.164595133500E+04   -0.11452E-05   -0.49464E-07  6404   0.120E-03    0.309E-04
DAV:   5    -0.164595133534E+04   -0.33765E-06   -0.24804E-07  6404   0.836E-04
  14 F= -.16459513E+04 E0= -.16459580E+04  d E =-.770980E-05
       N       E                     dE             d eps       ncg     rms          rms(c)
DAV:   1    -0.164595134586E+04   -0.10858E-04   -0.85103E-04 12560   0.366E-02    0.422E-03
DAV:   2    -0.164595134422E+04    0.16386E-05   -0.50447E-06  6380   0.385E-03    0.291E-03
DAV:   3    -0.164595134294E+04    0.12816E-05   -0.17262E-06  6380   0.221E-03    0.136E-03
DAV:   4    -0.164595134193E+04    0.10024E-05   -0.94637E-07  6380   0.181E-03    0.320E-04
DAV:   5    -0.164595134211E+04   -0.17311E-06   -0.48246E-07  6380   0.127E-03
  15 F= -.16459513E+04 E0= -.16459580E+04  d E =-.677069E-05
       N       E                     dE             d eps       ncg     rms          rms(c)
DAV:   1    -0.164595134883E+04   -0.69017E-05   -0.11831E-03 12560   0.430E-02    0.462E-03
DAV:   2    -0.164595135022E+04   -0.13830E-05   -0.70065E-06  6578   0.447E-03    0.332E-03
DAV:   3    -0.164595135154E+04   -0.13219E-05   -0.28837E-06  6491   0.256E-03    0.504E-04
DAV:   4    -0.164595135175E+04   -0.21246E-06   -0.11895E-06  6404   0.185E-03    0.333E-04
DAV:   5    -0.164595135172E+04    0.27316E-07   -0.66800E-07  6404   0.137E-03
  16 F= -.16459514E+04 E0= -.16459580E+04  d E =-.961873E-05
       N       E                     dE             d eps       ncg     rms          rms(c)
DAV:   1    -0.164595135630E+04   -0.45472E-05   -0.66113E-05 12138   0.118E-02    0.357E-03
DAV:   2    -0.164595135250E+04    0.37945E-05   -0.12533E-06  6435   0.184E-03    0.177E-03
DAV:   3    -0.164595135004E+04    0.24678E-05   -0.63452E-07  6380   0.139E-03    0.664E-04
DAV:   4    -0.164595134906E+04    0.97261E-06   -0.28158E-07  6380   0.114E-03    0.237E-04
DAV:   5    -0.164595134874E+04    0.32069E-06   -0.14308E-07  6380   0.667E-04
  17 F= -.16459513E+04 E0= -.16459580E+04  d E =0.298106E-05
       N       E                     dE             d eps       ncg     rms          rms(c)
DAV:   1    -0.164595135177E+04   -0.27075E-05   -0.40405E-04 12504   0.253E-02    0.317E-03
DAV:   2    -0.164595135337E+04   -0.16011E-05   -0.24357E-06  6380   0.262E-03    0.210E-03
DAV:   3    -0.164595135500E+04   -0.16288E-05   -0.99891E-07  6380   0.148E-03    0.465E-04
DAV:   4    -0.164595135536E+04   -0.36238E-06   -0.40305E-07  6380   0.104E-03    0.238E-04
DAV:   5    -0.164595135536E+04    0.22278E-08   -0.21306E-07  6380   0.769E-04
  18 F= -.16459514E+04 E0= -.16459580E+04  d E =-.661821E-05
       N       E                     dE             d eps       ncg     rms          rms(c)
DAV:   1    -0.164595135963E+04   -0.42706E-05   -0.54147E-04 12560   0.290E-02    0.308E-03
DAV:   2    -0.164595135929E+04    0.34803E-06   -0.31899E-06  6380   0.302E-03    0.224E-03
DAV:   3    -0.164595135869E+04    0.59718E-06   -0.12647E-06  6380   0.170E-03    0.376E-04
DAV:   4    -0.164595135863E+04    0.54516E-07   -0.54835E-07  6380   0.124E-03    0.251E-04
DAV:   5    -0.164595135871E+04   -0.76255E-07   -0.30629E-07  6380   0.931E-04
  19 F= -.16459514E+04 E0= -.16459580E+04  d E =-.334938E-05
       N       E                     dE             d eps       ncg     rms          rms(c)
DAV:   1    -0.164595135797E+04    0.66799E-06   -0.18449E-04 12344   0.176E-02    0.322E-03
DAV:   2    -0.164595136028E+04   -0.23091E-05   -0.16314E-06  6380   0.212E-03    0.183E-03
DAV:   3    -0.164595136223E+04   -0.19528E-05   -0.75665E-07  6380   0.139E-03    0.627E-04
DAV:   4    -0.164595136303E+04   -0.79624E-06   -0.32893E-07  6380   0.106E-03    0.277E-04
DAV:   5    -0.164595136320E+04   -0.17303E-06   -0.16806E-07  6380   0.731E-04
  20 F= -.16459514E+04 E0= -.16459580E+04  d E =-.448697E-05
       N       E                     dE             d eps       ncg     rms          rms(c)
DAV:   1    -0.164595136699E+04   -0.39621E-05   -0.62771E-05 12040   0.106E-02    0.237E-03
DAV:   2    -0.164595136480E+04    0.21903E-05   -0.80677E-07  6420   0.145E-03    0.127E-03
DAV:   3    -0.164595136326E+04    0.15367E-05   -0.33849E-07  6380   0.948E-04    0.467E-04
DAV:   4    -0.164595136264E+04    0.62520E-06   -0.14208E-07  6380   0.727E-04    0.181E-04
DAV:   5    -0.164595136247E+04    0.16063E-06   -0.69450E-08  6380   0.470E-04
  21 F= -.16459514E+04 E0= -.16459580E+04  d E =0.723723E-06
       N       E                     dE             d eps       ncg     rms          rms(c)
DAV:   1    -0.164595136413E+04   -0.14910E-05   -0.21765E-04 12344   0.184E-02    0.194E-03
DAV:   2    -0.164595136431E+04   -0.18110E-06   -0.13150E-06  6380   0.194E-03    0.140E-03
DAV:   3    -0.164595136447E+04   -0.16728E-06   -0.53917E-07  6380   0.107E-03    0.248E-04
DAV:   4    -0.164595136448E+04   -0.40868E-08   -0.20461E-07  6380   0.688E-04    0.118E-04
DAV:   5    -0.164595136449E+04   -0.66775E-08   -0.11251E-07  6380   0.519E-04
  22 F= -.16459514E+04 E0= -.16459580E+04  d E =-.201075E-05
       N       E                     dE             d eps       ncg     rms          rms(c)
DAV:   1    -0.164595136911E+04   -0.46283E-05   -0.15319E-03 12560   0.490E-02    0.525E-03
DAV:   2    -0.164595136768E+04    0.14264E-05   -0.85140E-06  6515   0.495E-03    0.372E-03
DAV:   3    -0.164595136571E+04    0.19656E-05   -0.30729E-06  6404   0.265E-03    0.809E-04
DAV:   4    -0.164595136541E+04    0.30193E-06   -0.13000E-06  6404   0.194E-03    0.376E-04
DAV:   5    -0.164595136559E+04   -0.17425E-06   -0.69269E-07  6396   0.145E-03
  23 F= -.16459514E+04 E0= -.16459580E+04  d E =-.110193E-05
