(written by ASE)

200 atoms
2 atom types

0.0                    12.5  xlo xhi
0.0      10.825317547305481  ylo yhi
0.0      16.329931618554522  zlo zhi
                  -6.25                       0                       0  xy xz yz

Masses

     1      24.304999993747675 # Mg
     2      65.379999983181364 # Zn

Atoms # atomic

     1   2                       0                       0                       0
     2   2 -2.7755575615628914e-17      1.4433756729740641      2.0412414523193152
     3   2                       0                       0      4.0824829046386304
     4   2 -2.7755575615628914e-17      1.4433756729740641      6.1237243569579451
     5   2                       0                       0      8.1649658092772608
     6   2 -2.7755575615628914e-17      1.4433756729740641      10.206207261596576
     7   2                       0                       0       12.24744871391589
     8   2 -2.7755575615628914e-17      1.4433756729740641      14.288690166235206
     9   2                   -1.25      2.1650635094610964                       0
    10   2                   -1.25      3.6084391824351605      2.0412414523193152
    11   2                   -1.25      2.1650635094610964      4.0824829046386304
    12   2                   -1.25      3.6084391824351605      6.1237243569579451
    13   2                   -1.25      2.1650635094610964      8.1649658092772608
    14   1                   -1.25      3.6084391824351605      10.206207261596576
    15   2                   -1.25      2.1650635094610964       12.24744871391589
    16   2                   -1.25      3.6084391824351605      14.288690166235206
    17   2                    -2.5      4.3301270189221928                       0
    18   2                    -2.5      5.7735026918962564      2.0412414523193152
    19   2                    -2.5      4.3301270189221928      4.0824829046386304
    20   2                    -2.5      5.7735026918962564      6.1237243569579451
    21   2                    -2.5      4.3301270189221928      8.1649658092772608
    22   1                    -2.5      5.7735026918962564      10.206207261596576
    23   2                    -2.5      4.3301270189221928       12.24744871391589
    24   2                    -2.5      5.7735026918962564      14.288690166235206
    25   1                   -3.75      6.4951905283832891                       0
    26   2                   -3.75      7.9385662013573537      2.0412414523193152
    27   2                   -3.75      6.4951905283832891      4.0824829046386304
    28   2                   -3.75      7.9385662013573537      6.1237243569579451
    29   1                   -3.75      6.4951905283832891      8.1649658092772608
    30   2                   -3.75      7.9385662013573537      10.206207261596576
    31   2                   -3.75      6.4951905283832891       12.24744871391589
    32   2                   -3.75      7.9385662013573537      14.288690166235206
    33   2                      -5      8.6602540378443855                       0
    34   2                      -5      10.103629710818449      2.0412414523193152
    35   1                      -5      8.6602540378443855      4.0824829046386304
    36   2                      -5      10.103629710818449      6.1237243569579451
    37   2                      -5      8.6602540378443855      8.1649658092772608
    38   2                      -5      10.103629710818449      10.206207261596576
    39   2                      -5      8.6602540378443855       12.24744871391589
    40   2                      -5      10.103629710818449      14.288690166235206
    41   2                     2.5                       0                       0
    42   2                     2.5      1.4433756729740641      2.0412414523193152
    43   2                     2.5                       0      4.0824829046386304
    44   2                     2.5      1.4433756729740641      6.1237243569579451
    45   1                     2.5                       0      8.1649658092772608
    46   2                     2.5      1.4433756729740641      10.206207261596576
    47   2                     2.5                       0       12.24744871391589
    48   2                     2.5      1.4433756729740641      14.288690166235206
    49   2                    1.25      2.1650635094610964                       0
    50   2                    1.25      3.6084391824351605      2.0412414523193152
    51   1                    1.25      2.1650635094610964      4.0824829046386304
    52   2                    1.25      3.6084391824351605      6.1237243569579451
    53   2                    1.25      2.1650635094610964      8.1649658092772608
    54   2                    1.25      3.6084391824351605      10.206207261596576
    55   1                    1.25      2.1650635094610964       12.24744871391589
    56   2                    1.25      3.6084391824351605      14.288690166235206
    57   1                       0      4.3301270189221928                       0
    58   2 -2.7755575615628914e-17      5.7735026918962564      2.0412414523193152
    59   2                       0      4.3301270189221928      4.0824829046386304
    60   2 -2.7755575615628914e-17      5.7735026918962564      6.1237243569579451
    61   2                       0      4.3301270189221928      8.1649658092772608
    62   2 -2.7755575615628914e-17      5.7735026918962564      10.206207261596576
    63   2                       0      4.3301270189221928       12.24744871391589
    64   1 -2.7755575615628914e-17      5.7735026918962564      14.288690166235206
    65   2                   -1.25      6.4951905283832891                       0
    66   2                   -1.25      7.9385662013573537      2.0412414523193152
    67   1                   -1.25      6.4951905283832891      4.0824829046386304
    68   2                   -1.25      7.9385662013573537      6.1237243569579451
    69   2                   -1.25      6.4951905283832891      8.1649658092772608
    70   2                   -1.25      7.9385662013573537      10.206207261596576
    71   2                   -1.25      6.4951905283832891       12.24744871391589
    72   2                   -1.25      7.9385662013573537      14.288690166235206
    73   2                    -2.5      8.6602540378443855                       0
    74   1                    -2.5      10.103629710818449      2.0412414523193152
    75   2                    -2.5      8.6602540378443855      4.0824829046386304
    76   2                    -2.5      10.103629710818449      6.1237243569579451
    77   2                    -2.5      8.6602540378443855      8.1649658092772608
    78   2                    -2.5      10.103629710818449      10.206207261596576
    79   2                    -2.5      8.6602540378443855       12.24744871391589
    80   2                    -2.5      10.103629710818449      14.288690166235206
    81   1                       5                       0                       0
    82   2                       5      1.4433756729740641      2.0412414523193152
    83   2                       5                       0      4.0824829046386304
    84   2                       5      1.4433756729740641      6.1237243569579451
    85   2                       5                       0      8.1649658092772608
    86   2                       5      1.4433756729740641      10.206207261596576
    87   2                       5                       0       12.24744871391589
    88   2                       5      1.4433756729740641      14.288690166235206
    89   2                    3.75      2.1650635094610964                       0
    90   2                    3.75      3.6084391824351605      2.0412414523193152
    91   2                    3.75      2.1650635094610964      4.0824829046386304
    92   2                    3.75      3.6084391824351605      6.1237243569579451
    93   2                    3.75      2.1650635094610964      8.1649658092772608
    94   2                    3.75      3.6084391824351605      10.206207261596576
    95   2                    3.75      2.1650635094610964       12.24744871391589
    96   2                    3.75      3.6084391824351605      14.288690166235206
    97   2                     2.5      4.3301270189221928                       0
    98   2                     2.5      5.7735026918962564      2.0412414523193152
    99   2                     2.5      4.3301270189221928      4.0824829046386304
   100   2                     2.5      5.7735026918962564      6.1237243569579451
   101   2                     2.5      4.3301270189221928      8.1649658092772608
   102   2                     2.5      5.7735026918962564      10.206207261596576
   103   2                     2.5      4.3301270189221928       12.24744871391589
   104   2                     2.5      5.7735026918962564      14.288690166235206
   105   1                    1.25      6.4951905283832891                       0
   106   1                    1.25      7.9385662013573537      2.0412414523193152
   107   2                    1.25      6.4951905283832891      4.0824829046386304
   108   2                    1.25      7.9385662013573537      6.1237243569579451
   109   2                    1.25      6.4951905283832891      8.1649658092772608
   110   1                    1.25      7.9385662013573537      10.206207261596576
   111   2                    1.25      6.4951905283832891       12.24744871391589
   112   2                    1.25      7.9385662013573537      14.288690166235206
   113   2                       0      8.6602540378443855                       0
   114   1 -2.7755575615628914e-17      10.103629710818449      2.0412414523193152
   115   2                       0      8.6602540378443855      4.0824829046386304
   116   1 -2.7755575615628914e-17      10.103629710818449      6.1237243569579451
   117   1                       0      8.6602540378443855      8.1649658092772608
   118   2 -2.7755575615628914e-17      10.103629710818449      10.206207261596576
   119   2                       0      8.6602540378443855       12.24744871391589
   120   2 -2.7755575615628914e-17      10.103629710818449      14.288690166235206
   121   2                     7.5                       0                       0
   122   1                     7.5      1.4433756729740641      2.0412414523193152
   123   1                     7.5                       0      4.0824829046386304
   124   2                     7.5      1.4433756729740641      6.1237243569579451
   125   2                     7.5                       0      8.1649658092772608
   126   1                     7.5      1.4433756729740641      10.206207261596576
   127   2                     7.5                       0       12.24744871391589
   128   2                     7.5      1.4433756729740641      14.288690166235206
   129   2                    6.25      2.1650635094610964                       0
   130   2                    6.25      3.6084391824351605      2.0412414523193152
   131   2                    6.25      2.1650635094610964      4.0824829046386304
   132   2                    6.25      3.6084391824351605      6.1237243569579451
   133   2                    6.25      2.1650635094610964      8.1649658092772608
   134   1                    6.25      3.6084391824351605      10.206207261596576
   135   2                    6.25      2.1650635094610964       12.24744871391589
   136   1                    6.25      3.6084391824351605      14.288690166235206
   137   1                       5      4.3301270189221928                       0
   138   1                       5      5.7735026918962564      2.0412414523193152
   139   2                       5      4.3301270189221928      4.0824829046386304
   140   2                       5      5.7735026918962564      6.1237243569579451
   141   1                       5      4.3301270189221928      8.1649658092772608
   142   2                       5      5.7735026918962564      10.206207261596576
   143   2                       5      4.3301270189221928       12.24744871391589
   144   2                       5      5.7735026918962564      14.288690166235206
   145   2                    3.75      6.4951905283832891                       0
   146   2                    3.75      7.9385662013573537      2.0412414523193152
   147   2                    3.75      6.4951905283832891      4.0824829046386304
   148   2                    3.75      7.9385662013573537      6.1237243569579451
   149   2                    3.75      6.4951905283832891      8.1649658092772608
   150   2                    3.75      7.9385662013573537      10.206207261596576
   151   1                    3.75      6.4951905283832891       12.24744871391589
   152   2                    3.75      7.9385662013573537      14.288690166235206
   153   2                     2.5      8.6602540378443855                       0
   154   2                     2.5      10.103629710818449      2.0412414523193152
   155   2                     2.5      8.6602540378443855      4.0824829046386304
   156   1                     2.5      10.103629710818449      6.1237243569579451
   157   2                     2.5      8.6602540378443855      8.1649658092772608
   158   1                     2.5      10.103629710818449      10.206207261596576
   159   2                     2.5      8.6602540378443855       12.24744871391589
   160   2                     2.5      10.103629710818449      14.288690166235206
   161   2                      10                       0                       0
   162   2                      10      1.4433756729740641      2.0412414523193152
   163   2                      10                       0      4.0824829046386304
   164   2                      10      1.4433756729740641      6.1237243569579451
   165   2                      10                       0      8.1649658092772608
   166   2                      10      1.4433756729740641      10.206207261596576
   167   2                      10                       0       12.24744871391589
   168   2                      10      1.4433756729740641      14.288690166235206
   169   1                    8.75      2.1650635094610964                       0
   170   2                    8.75      3.6084391824351605      2.0412414523193152
   171   2                    8.75      2.1650635094610964      4.0824829046386304
   172   1                    8.75      3.6084391824351605      6.1237243569579451
   173   2                    8.75      2.1650635094610964      8.1649658092772608
   174   2                    8.75      3.6084391824351605      10.206207261596576
   175   2                    8.75      2.1650635094610964       12.24744871391589
   176   2                    8.75      3.6084391824351605      14.288690166235206
   177   1                     7.5      4.3301270189221928                       0
   178   2                     7.5      5.7735026918962564      2.0412414523193152
   179   2                     7.5      4.3301270189221928      4.0824829046386304
   180   2                     7.5      5.7735026918962564      6.1237243569579451
   181   2                     7.5      4.3301270189221928      8.1649658092772608
   182   2                     7.5      5.7735026918962564      10.206207261596576
   183   2                     7.5      4.3301270189221928       12.24744871391589
   184   1                     7.5      5.7735026918962564      14.288690166235206
   185   1                    6.25      6.4951905283832891                       0
   186   2                    6.25      7.9385662013573537      2.0412414523193152
   187   2                    6.25      6.4951905283832891      4.0824829046386304
   188   2                    6.25      7.9385662013573537      6.1237243569579451
   189   1                    6.25      6.4951905283832891      8.1649658092772608
   190   2                    6.25      7.9385662013573537      10.206207261596576
   191   2                    6.25      6.4951905283832891       12.24744871391589
   192   2                    6.25      7.9385662013573537      14.288690166235206
   193   2                       5      8.6602540378443855                       0
   194   2                       5      10.103629710818449      2.0412414523193152
   195   2                       5      8.6602540378443855      4.0824829046386304
   196   2                       5      10.103629710818449      6.1237243569579451
   197   2                       5      8.6602540378443855      8.1649658092772608
   198   1                       5      10.103629710818449      10.206207261596576
   199   2                       5      8.6602540378443855       12.24744871391589
   200   2                       5      10.103629710818449      14.288690166235206
