       N       E                     dE             d eps       ncg     rms          rms(c)
DAV:   1     0.250724129941E+04    0.25072E+04   -0.30553E+05 12140   0.144E+03
DAV:   2    -0.119334322403E+04   -0.37006E+04   -0.35431E+04 13946   0.327E+02
DAV:   3    -0.167549094459E+04   -0.48215E+03   -0.45383E+03 18608   0.827E+01
DAV:   4    -0.170078155948E+04   -0.25291E+02   -0.24251E+02 17024   0.182E+01
DAV:   5    -0.170183721202E+04   -0.10557E+01   -0.10389E+01 18856   0.395E+00    0.438E+01
DAV:   6    -0.164874939745E+04    0.53088E+02   -0.98606E+01 18144   0.126E+01    0.226E+01
DAV:   7    -0.163213831330E+04    0.16611E+02   -0.62408E+01 16832   0.111E+01    0.112E+01
DAV:   8    -0.162637172335E+04    0.57666E+01   -0.25715E+01 17016   0.959E+00    0.408E+00
DAV:   9    -0.162555991097E+04    0.81181E+00   -0.76264E+00 17464   0.480E+00    0.168E+00
DAV:  10    -0.162558056096E+04   -0.20650E-01   -0.14581E+00 16736   0.173E+00    0.121E+00
DAV:  11    -0.162555140182E+04    0.29159E-01   -0.29332E-01 16496   0.732E-01    0.546E-01
DAV:  12    -0.162554228291E+04    0.91189E-02   -0.51959E-02 16400   0.364E-01    0.264E-01
DAV:  13    -0.162554044577E+04    0.18371E-02   -0.14342E-02 17720   0.175E-01    0.111E-01
DAV:  14    -0.162554016835E+04    0.27742E-03   -0.35186E-03 15584   0.965E-02    0.503E-02
DAV:  15    -0.162554020060E+04   -0.32247E-04   -0.12192E-03 15088   0.493E-02    0.290E-02
DAV:  16    -0.162554018071E+04    0.19892E-04   -0.19589E-04 15792   0.220E-02    0.139E-02
DAV:  17    -0.162554016498E+04    0.15729E-04   -0.40066E-05  9864   0.105E-02    0.677E-03
DAV:  18    -0.162554015815E+04    0.68326E-05   -0.17518E-05  7848   0.695E-03
   1 F= -.16255402E+04 E0= -.16255486E+04  d E =-.162554E+04
       N       E                     dE             d eps       ncg     rms          rms(c)
DAV:   1    -0.162679273082E+04   -0.12526E+01   -0.49929E+02 12124   0.316E+01    0.968E+00
DAV:   2    -0.162245499229E+04    0.43377E+01   -0.14765E+01 16968   0.498E+00    0.443E+00
DAV:   3    -0.162157918829E+04    0.87580E+00   -0.39816E+00 16144   0.273E+00    0.255E+00
DAV:   4    -0.162129721520E+04    0.28197E+00   -0.14131E+00 16920   0.221E+00    0.125E+00
DAV:   5    -0.162119652925E+04    0.10069E+00   -0.61915E-01 16352   0.148E+00    0.440E-01
DAV:   6    -0.162120079564E+04   -0.42664E-02   -0.13034E-01 15360   0.548E-01    0.331E-01
DAV:   7    -0.162120233343E+04   -0.15378E-02   -0.23464E-02 16032   0.209E-01    0.190E-01
DAV:   8    -0.162120380119E+04   -0.14678E-02   -0.77992E-03 16856   0.132E-01    0.112E-01
DAV:   9    -0.162120368720E+04    0.11399E-03   -0.23516E-03 15624   0.874E-02    0.606E-02
DAV:  10    -0.162120357322E+04    0.11398E-03   -0.13585E-03 17384   0.474E-02    0.249E-02
DAV:  11    -0.162120359309E+04   -0.19870E-04   -0.16282E-04 14968   0.183E-02    0.141E-02
DAV:  12    -0.162120360198E+04   -0.88866E-05   -0.29538E-05  8992   0.961E-03
   2 F= -.16212036E+04 E0= -.16212058E+04  d E =0.433656E+01
       N       E                     dE             d eps       ncg     rms          rms(c)
DAV:   1    -0.163027956752E+04   -0.90760E+01   -0.16070E+02 12124   0.205E+01    0.705E+00
DAV:   2    -0.162786020471E+04    0.24194E+01   -0.40375E+00 12890   0.297E+00    0.318E+00
DAV:   3    -0.162732435811E+04    0.53585E+00   -0.12401E+00 13648   0.176E+00    0.121E+00
DAV:   4    -0.162725311673E+04    0.71241E-01   -0.38584E-01 15576   0.117E+00    0.497E-01
DAV:   5    -0.162723807650E+04    0.15040E-01   -0.13310E-01 15712   0.722E-01    0.192E-01
DAV:   6    -0.162724062752E+04   -0.25510E-02   -0.28331E-02 15584   0.263E-01    0.139E-01
DAV:   7    -0.162724211096E+04   -0.14834E-02   -0.48208E-03 15904   0.983E-02    0.798E-02
DAV:   8    -0.162724282568E+04   -0.71472E-03   -0.11664E-03 14784   0.540E-02    0.435E-02
DAV:   9    -0.162724309990E+04   -0.27423E-03   -0.53084E-04 14608   0.351E-02    0.215E-02
DAV:  10    -0.162724319992E+04   -0.10002E-03   -0.22773E-04 14968   0.218E-02    0.101E-02
DAV:  11    -0.162724320600E+04   -0.60823E-05   -0.29288E-05  8616   0.903E-03
   3 F= -.16272432E+04 E0= -.16272419E+04  d E =-.603960E+01
       N       E                     dE             d eps       ncg     rms          rms(c)
DAV:   1    -0.162728007521E+04   -0.36875E-01   -0.63621E+00 12124   0.324E+00    0.490E-01
DAV:   2    -0.162728162472E+04   -0.15495E-02   -0.11821E-01 17840   0.462E-01    0.287E-01
DAV:   3    -0.162728004307E+04    0.15817E-02   -0.16449E-02 18552   0.204E-01    0.197E-01
DAV:   4    -0.162727886838E+04    0.11747E-02   -0.53493E-03 18088   0.139E-01    0.103E-01
DAV:   5    -0.162727842598E+04    0.44240E-03   -0.26724E-03 16592   0.857E-02    0.333E-02
DAV:   6    -0.162727843465E+04   -0.86686E-05   -0.46055E-04 15088   0.317E-02    0.229E-02
DAV:   7    -0.162727843439E+04    0.26079E-06   -0.78591E-05 13832   0.138E-02
   4 F= -.16272784E+04 E0= -.16272776E+04  d E =-.352284E-01
       N       E                     dE             d eps       ncg     rms          rms(c)
DAV:   1    -0.162728056016E+04   -0.21255E-02   -0.37021E-01 12274   0.776E-01    0.998E-02
DAV:   2    -0.162728079627E+04   -0.23611E-03   -0.66666E-03 17920   0.114E-01    0.613E-02
DAV:   3    -0.162728072336E+04    0.72904E-04   -0.97519E-04 18782   0.528E-02    0.445E-02
DAV:   4    -0.162728068109E+04    0.42273E-04   -0.22796E-04 18496   0.273E-02    0.273E-02
DAV:   5    -0.162728066518E+04    0.15915E-04   -0.13381E-04 14968   0.169E-02    0.692E-03
DAV:   6    -0.162728066452E+04    0.66061E-06   -0.16437E-05  7952   0.703E-03
   5 F= -.16272807E+04 E0= -.16272797E+04  d E =-.223012E-02
       N       E                     dE             d eps       ncg     rms          rms(c)
DAV:   1    -0.162728115362E+04   -0.48844E-03   -0.53679E-02 12358   0.303E-01    0.520E-02
DAV:   2    -0.162728113470E+04    0.18918E-04   -0.71132E-04 17152   0.398E-02    0.292E-02
DAV:   3    -0.162728112992E+04    0.47813E-05   -0.17089E-04 17696   0.236E-02    0.211E-02
DAV:   4    -0.162728112783E+04    0.20879E-05   -0.59560E-05 12872   0.150E-02    0.875E-03
DAV:   5    -0.162728113703E+04   -0.92009E-05   -0.23288E-05  7328   0.814E-03
   6 F= -.16272811E+04 E0= -.16272803E+04  d E =-.472513E-03
       N       E                     dE             d eps       ncg     rms          rms(c)
DAV:   1    -0.162728150990E+04   -0.38207E-03   -0.21542E-02 12358   0.193E-01    0.361E-02
DAV:   2    -0.162728144879E+04    0.61115E-04   -0.28108E-04 17432   0.255E-02    0.198E-02
DAV:   3    -0.162728142860E+04    0.20191E-04   -0.71054E-05 14319   0.163E-02    0.140E-02
DAV:   4    -0.162728140623E+04    0.22361E-04   -0.21145E-05  8952   0.994E-03    0.566E-03
DAV:   5    -0.162728139816E+04    0.80702E-05   -0.11380E-05  6664   0.549E-03
   7 F= -.16272814E+04 E0= -.16272805E+04  d E =-.261136E-03
       N       E                     dE             d eps       ncg     rms          rms(c)
DAV:   1    -0.162728160920E+04   -0.20297E-03   -0.22073E-02 12358   0.189E-01    0.220E-02
DAV:   2    -0.162728162545E+04   -0.16242E-04   -0.20064E-04 17760   0.204E-02    0.155E-02
DAV:   3    -0.162728162361E+04    0.18325E-05   -0.20045E-05  9024   0.101E-02    0.116E-02
DAV:   4    -0.162728162857E+04   -0.49602E-05   -0.16915E-05  6888   0.717E-03    0.187E-03
DAV:   5    -0.162728162883E+04   -0.25748E-06   -0.35393E-06  6608   0.426E-03
   8 F= -.16272816E+04 E0= -.16272807E+04  d E =-.230667E-03
       N       E                     dE             d eps       ncg     rms          rms(c)
DAV:   1    -0.162728179025E+04   -0.16168E-03   -0.16000E-02 12358   0.161E-01    0.190E-02
DAV:   2    -0.162728178429E+04    0.59615E-05   -0.14269E-04 16928   0.171E-02    0.130E-02
DAV:   3    -0.162728177791E+04    0.63824E-05   -0.15782E-05  8512   0.867E-03    0.947E-03
DAV:   4    -0.162728176830E+04    0.96105E-05   -0.97201E-06  6664   0.626E-03    0.224E-03
DAV:   5    -0.162728176704E+04    0.12582E-05   -0.33147E-06  6552   0.370E-03
   9 F= -.16272818E+04 E0= -.16272809E+04  d E =-.138206E-03
       N       E                     dE             d eps       ncg     rms          rms(c)
DAV:   1    -0.162728184793E+04   -0.79630E-04   -0.58653E-03 12358   0.988E-02    0.144E-02
DAV:   2    -0.162728185450E+04   -0.65733E-05   -0.48822E-05 12008   0.102E-02    0.865E-03
DAV:   3    -0.162728185891E+04   -0.44063E-05   -0.10287E-05  7056   0.591E-03    0.467E-03
DAV:   4    -0.162728186258E+04   -0.36709E-05   -0.40812E-06  6536   0.465E-03    0.156E-03
DAV:   5    -0.162728186417E+04   -0.15985E-05   -0.21838E-06  6440   0.273E-03
  10 F= -.16272819E+04 E0= -.16272810E+04  d E =-.971374E-04
       N       E                     dE             d eps       ncg     rms          rms(c)
DAV:   1    -0.162728196394E+04   -0.10136E-03   -0.82584E-03 12358   0.116E-01    0.137E-02
DAV:   2    -0.162728195867E+04    0.52659E-05   -0.71777E-05 14408   0.115E-02    0.930E-03
DAV:   3    -0.162728195377E+04    0.48977E-05   -0.93332E-06  7024   0.562E-03    0.568E-03
DAV:   4    -0.162728194890E+04    0.48723E-05   -0.40885E-06  6440   0.455E-03    0.153E-03
DAV:   5    -0.162728194810E+04    0.80364E-06   -0.17975E-06  6440   0.272E-03
  11 F= -.16272819E+04 E0= -.16272810E+04  d E =-.839239E-04
       N       E                     dE             d eps       ncg     rms          rms(c)
DAV:   1    -0.162728201961E+04   -0.70704E-04   -0.73124E-03 12358   0.108E-01    0.119E-02
DAV:   2    -0.162728202645E+04   -0.68395E-05   -0.57803E-05 13000   0.104E-02    0.848E-03
DAV:   3    -0.162728202861E+04   -0.21687E-05   -0.91612E-06  6760   0.519E-03    0.390E-03
DAV:   4    -0.162728203092E+04   -0.23056E-05   -0.33790E-06  6416   0.405E-03    0.968E-04
DAV:   5    -0.162728203095E+04   -0.32401E-07   -0.13626E-06  6416   0.246E-03
  12 F= -.16272820E+04 E0= -.16272811E+04  d E =-.828535E-04
       N       E                     dE             d eps       ncg     rms          rms(c)
DAV:   1    -0.162728209104E+04   -0.60125E-04   -0.45521E-03 12358   0.860E-02    0.108E-02
DAV:   2    -0.162728208387E+04    0.71717E-05   -0.29857E-05  8896   0.847E-03    0.689E-03
DAV:   3    -0.162728207875E+04    0.51224E-05   -0.98231E-06  6560   0.499E-03    0.298E-03
DAV:   4    -0.162728207653E+04    0.22196E-05   -0.43885E-06  6416   0.414E-03    0.126E-03
DAV:   5    -0.162728207619E+04    0.33996E-06   -0.23200E-06  6416   0.289E-03
  13 F= -.16272821E+04 E0= -.16272812E+04  d E =-.452395E-04
       N       E                     dE             d eps       ncg     rms          rms(c)
DAV:   1    -0.162728211408E+04   -0.37546E-04   -0.31262E-03 12358   0.714E-02    0.931E-03
DAV:   2    -0.162728211861E+04   -0.45367E-05   -0.20580E-05  7120   0.729E-03    0.592E-03
DAV:   3    -0.162728212288E+04   -0.42665E-05   -0.86247E-06  6432   0.435E-03    0.174E-03
DAV:   4    -0.162728212459E+04   -0.17128E-05   -0.36952E-06  6413   0.328E-03    0.914E-04
DAV:   5    -0.162728212490E+04   -0.30501E-06   -0.19591E-06  6413   0.251E-03
  14 F= -.16272821E+04 E0= -.16272812E+04  d E =-.487070E-04
       N       E                     dE             d eps       ncg     rms          rms(c)
DAV:   1    -0.162728216794E+04   -0.43348E-04   -0.33720E-03 12358   0.736E-02    0.844E-03
DAV:   2    -0.162728216445E+04    0.34958E-05   -0.22036E-05  8613   0.747E-03    0.571E-03
DAV:   3    -0.162728216101E+04    0.34321E-05   -0.79551E-06  6477   0.436E-03    0.201E-03
DAV:   4    -0.162728215996E+04    0.10523E-05   -0.37309E-06  6413   0.354E-03    0.845E-04
DAV:   5    -0.162728216009E+04   -0.12634E-06   -0.20369E-06  6413   0.264E-03
  15 F= -.16272822E+04 E0= -.16272812E+04  d E =-.351888E-04
       N       E                     dE             d eps       ncg     rms          rms(c)
DAV:   1    -0.162728219003E+04   -0.30071E-04   -0.29994E-03 12358   0.694E-02    0.779E-03
DAV:   2    -0.162728219355E+04   -0.35143E-05   -0.18713E-05  6880   0.700E-03    0.535E-03
DAV:   3    -0.162728219651E+04   -0.29665E-05   -0.77289E-06  6488   0.410E-03    0.125E-03
DAV:   4    -0.162728219751E+04   -0.10008E-05   -0.34145E-06  6413   0.301E-03    0.657E-04
DAV:   5    -0.162728219763E+04   -0.11516E-06   -0.18729E-06  6413   0.235E-03
  16 F= -.16272822E+04 E0= -.16272813E+04  d E =-.375414E-04
       N       E                     dE             d eps       ncg     rms          rms(c)
DAV:   1    -0.162728222417E+04   -0.26656E-04   -0.16422E-03 12358   0.516E-02    0.663E-03
DAV:   2    -0.162728222003E+04    0.41363E-05   -0.11550E-05  6917   0.550E-03    0.422E-03
DAV:   3    -0.162728221679E+04    0.32451E-05   -0.47668E-06  6413   0.336E-03    0.150E-03
DAV:   4    -0.162728221575E+04    0.10368E-05   -0.22644E-06  6413   0.268E-03    0.759E-04
DAV:   5    -0.162728221567E+04    0.86321E-07   -0.12562E-06  6413   0.205E-03
  17 F= -.16272822E+04 E0= -.16272813E+04  d E =-.180366E-04
       N       E                     dE             d eps       ncg     rms          rms(c)
DAV:   1    -0.162728223488E+04   -0.19132E-04   -0.16974E-03 12358   0.522E-02    0.592E-03
DAV:   2    -0.162728223756E+04   -0.26713E-05   -0.10727E-05  7181   0.530E-03    0.406E-03
DAV:   3    -0.162728223995E+04   -0.23995E-05   -0.45021E-06  6461   0.312E-03    0.933E-04
DAV:   4    -0.162728224066E+04   -0.70701E-06   -0.20040E-06  6413   0.226E-03    0.490E-04
DAV:   5    -0.162728224073E+04   -0.65847E-07   -0.11067E-06  6413   0.177E-03
  18 F= -.16272822E+04 E0= -.16272813E+04  d E =-.250623E-04
       N       E                     dE             d eps       ncg     rms          rms(c)
DAV:   1    -0.162728226394E+04   -0.23274E-04   -0.21121E-03 12326   0.582E-02    0.636E-03
DAV:   2    -0.162728226188E+04    0.20515E-05   -0.12986E-05  7288   0.586E-03    0.440E-03
DAV:   3    -0.162728225952E+04    0.23649E-05   -0.50927E-06  6469   0.338E-03    0.121E-03
DAV:   4    -0.162728225906E+04    0.46220E-06   -0.23657E-06  6413   0.260E-03    0.573E-04
DAV:   5    -0.162728225921E+04   -0.15794E-06   -0.13102E-06  6413   0.203E-03
  19 F= -.16272823E+04 E0= -.16272813E+04  d E =-.184873E-04
       N       E                     dE             d eps       ncg     rms          rms(c)
DAV:   1    -0.162728226891E+04   -0.98561E-05   -0.85402E-04 12358   0.374E-02    0.506E-03
DAV:   2    -0.162728227179E+04   -0.28739E-05   -0.63041E-06  6461   0.404E-03    0.317E-03
DAV:   3    -0.162728227436E+04   -0.25763E-05   -0.27727E-06  6413   0.249E-03    0.973E-04
DAV:   4    -0.162728227535E+04   -0.98238E-06   -0.12641E-06  6413   0.183E-03    0.496E-04
DAV:   5    -0.162728227550E+04   -0.15155E-06   -0.68828E-07  6413   0.141E-03
  20 F= -.16272823E+04 E0= -.16272814E+04  d E =-.162823E-04
       N       E                     dE             d eps       ncg     rms          rms(c)
DAV:   1    -0.162728229019E+04   -0.14849E-04   -0.93088E-04 12326   0.387E-02    0.456E-03
DAV:   2    -0.162728228804E+04    0.21571E-05   -0.60088E-06  6629   0.398E-03    0.304E-03
DAV:   3    -0.162728228603E+04    0.20100E-05   -0.24332E-06  6397   0.233E-03    0.916E-04
DAV:   4    -0.162728228549E+04    0.53428E-06   -0.11354E-06  6413   0.177E-03    0.447E-04
DAV:   5    -0.162728228553E+04   -0.35402E-07   -0.62651E-07  6397   0.139E-03
  21 F= -.16272823E+04 E0= -.16272814E+04  d E =-.100310E-04
       N       E                     dE             d eps       ncg     rms          rms(c)
DAV:   1    -0.162728229751E+04   -0.12015E-04   -0.14266E-03 12294   0.477E-02    0.500E-03
DAV:   2    -0.162728229918E+04   -0.16680E-05   -0.84205E-06  6797   0.473E-03    0.356E-03
DAV:   3    -0.162728230064E+04   -0.14625E-05   -0.35123E-06  6397   0.274E-03    0.605E-04
DAV:   4    -0.162728230097E+04   -0.33253E-06   -0.15117E-06  6413   0.193E-03    0.364E-04
DAV:   5    -0.162728230099E+04   -0.15048E-07   -0.83786E-07  6405   0.151E-03
  22 F= -.16272823E+04 E0= -.16272814E+04  d E =-.154576E-04
       N       E                     dE             d eps       ncg     rms          rms(c)
DAV:   1    -0.162728231173E+04   -0.10757E-04   -0.62987E-04 12326   0.321E-02    0.451E-03
DAV:   2    -0.162728230851E+04    0.32132E-05   -0.47442E-06  6437   0.351E-03    0.273E-03
DAV:   3    -0.162728230615E+04    0.23636E-05   -0.19981E-06  6397   0.216E-03    0.981E-04
DAV:   4    -0.162728230531E+04    0.84567E-06   -0.92922E-07  6413   0.168E-03    0.514E-04
DAV:   5    -0.162728230517E+04    0.13998E-06   -0.50751E-07  6413   0.129E-03
  23 F= -.16272823E+04 E0= -.16272814E+04  d E =-.417955E-05
       N       E                     dE             d eps       ncg     rms          rms(c)
DAV:   1    -0.162728230970E+04   -0.43997E-05   -0.37211E-04 12246   0.247E-02    0.338E-03
DAV:   2    -0.162728231169E+04   -0.19853E-05   -0.27159E-06  6413   0.266E-03    0.211E-03
DAV:   3    -0.162728231346E+04   -0.17720E-05   -0.11924E-06  6397   0.163E-03    0.637E-04
DAV:   4    -0.162728231408E+04   -0.61531E-06   -0.53526E-07  6413   0.120E-03    0.332E-04
DAV:   5    -0.162728231417E+04   -0.87744E-07   -0.29099E-07  6413   0.921E-04
  24 F= -.16272823E+04 E0= -.16272814E+04  d E =-.900002E-05
       N       E                     dE             d eps       ncg     rms          rms(c)
DAV:   1    -0.162728232291E+04   -0.88332E-05   -0.87503E-04 12294   0.374E-02    0.383E-03
DAV:   2    -0.162728232241E+04    0.49951E-06   -0.50460E-06  6413   0.367E-03    0.276E-03
DAV:   3    -0.162728232155E+04    0.86509E-06   -0.20440E-06  6389   0.209E-03    0.467E-04
DAV:   4    -0.162728232151E+04    0.32292E-07   -0.88742E-07  6389   0.149E-03    0.287E-04
DAV:   5    -0.162728232160E+04   -0.81344E-07   -0.49244E-07  6389   0.117E-03
  25 F= -.16272823E+04 E0= -.16272814E+04  d E =-.742996E-05
       N       E                     dE             d eps       ncg     rms          rms(c)
DAV:   1    -0.162728232708E+04   -0.55680E-05   -0.12986E-03 12260   0.458E-02    0.531E-03
DAV:   2    -0.162728232969E+04   -0.26046E-05   -0.79313E-06  6893   0.459E-03    0.354E-03
DAV:   3    -0.162728233199E+04   -0.23082E-05   -0.31867E-06  6420   0.262E-03    0.955E-04
DAV:   4    -0.162728233276E+04   -0.76851E-06   -0.13934E-06  6365   0.190E-03    0.475E-04
DAV:   5    -0.162728233283E+04   -0.71211E-07   -0.74686E-07  6364   0.147E-03
  26 F= -.16272823E+04 E0= -.16272814E+04  d E =-.112393E-04
       N       E                     dE             d eps       ncg     rms          rms(c)
DAV:   1    -0.162728233649E+04   -0.37297E-05   -0.35462E-05  9326   0.956E-03    0.299E-03
DAV:   2    -0.162728233327E+04    0.32262E-05   -0.14188E-06  6389   0.232E-03    0.144E-03
DAV:   3    -0.162728233086E+04    0.24085E-05   -0.38744E-07  6389   0.880E-04    0.472E-04
DAV:   4    -0.162728233025E+04    0.60769E-06   -0.11937E-07  6389   0.723E-04    0.264E-04
DAV:   5    -0.162728232985E+04    0.39912E-06   -0.62187E-08  6389   0.450E-04
  27 F= -.16272823E+04 E0= -.16272814E+04  d E =0.298309E-05
       N       E                     dE             d eps       ncg     rms          rms(c)
DAV:   1    -0.162728233477E+04   -0.45148E-05   -0.60256E-04 12277   0.310E-02    0.306E-03
DAV:   2    -0.162728233513E+04   -0.36794E-06   -0.31920E-06  6365   0.291E-03    0.223E-03
DAV:   3    -0.162728233540E+04   -0.26811E-06   -0.12873E-06  6340   0.162E-03    0.326E-04
DAV:   4    -0.162728233547E+04   -0.68757E-07   -0.51041E-07  6365   0.110E-03    0.231E-04
DAV:   5    -0.162728233548E+04   -0.10394E-07   -0.27853E-07  6349   0.853E-04
  28 F= -.16272823E+04 E0= -.16272814E+04  d E =-.562912E-05
       N       E                     dE             d eps       ncg     rms          rms(c)
DAV:   1    -0.162728234781E+04   -0.12342E-04   -0.68805E-03 12160   0.105E-01    0.103E-02
DAV:   2    -0.162728234927E+04   -0.14614E-05   -0.49377E-05 12168   0.990E-03    0.780E-03
DAV:   3    -0.162728234672E+04    0.25526E-05   -0.10060E-05  6518   0.492E-03    0.161E-03
DAV:   4    -0.162728234660E+04    0.12433E-06   -0.26015E-06  6413   0.303E-03    0.883E-04
DAV:   5    -0.162728234674E+04   -0.14619E-06   -0.11714E-06  6388   0.207E-03
  29 F= -.16272823E+04 E0= -.16272814E+04  d E =-.112618E-04
       N       E                     dE             d eps       ncg     rms          rms(c)
DAV:   1    -0.162728233894E+04    0.76581E-05   -0.14933E-03 12178   0.495E-02    0.633E-03
DAV:   2    -0.162728234187E+04   -0.29346E-05   -0.75975E-06  6365   0.469E-03    0.393E-03
DAV:   3    -0.162728234456E+04   -0.26880E-05   -0.26895E-06  6331   0.245E-03    0.128E-03
DAV:   4    -0.162728234562E+04   -0.10627E-05   -0.94854E-07  6365   0.176E-03    0.633E-04
DAV:   5    -0.162728234580E+04   -0.18089E-06   -0.42472E-07  6365   0.127E-03
  30 F= -.16272823E+04 E0= -.16272814E+04  d E =0.938122E-06
       N       E                     dE             d eps       ncg     rms          rms(c)
DAV:   1    -0.162728235370E+04   -0.80760E-05   -0.14057E-03 12178   0.476E-02    0.498E-03
DAV:   2    -0.162728235184E+04    0.18623E-05   -0.67112E-06  6365   0.427E-03    0.342E-03
DAV:   3    -0.162728234973E+04    0.21106E-05   -0.22369E-06  6307   0.214E-03    0.804E-04
DAV:   4    -0.162728234938E+04    0.34880E-06   -0.83929E-07  6338   0.144E-03    0.385E-04
DAV:   5    -0.162728234944E+04   -0.65538E-07   -0.41063E-07  6338   0.111E-03
  31 F= -.16272823E+04 E0= -.16272814E+04  d E =-.363894E-05
       N       E                     dE             d eps       ncg     rms          rms(c)
DAV:   1    -0.162728235115E+04   -0.17759E-05   -0.34519E-04 12140   0.234E-02    0.241E-03
DAV:   2    -0.162728235141E+04   -0.25718E-06   -0.22252E-06  6266   0.243E-03    0.176E-03
DAV:   3    -0.162728235158E+04   -0.16436E-06   -0.95313E-07  6258   0.146E-03    0.288E-04
DAV:   4    -0.162728235164E+04   -0.65201E-07   -0.42607E-07  6266   0.106E-03    0.205E-04
DAV:   5    -0.162728235165E+04   -0.10129E-07   -0.24133E-07  6266   0.827E-04
  32 F= -.16272824E+04 E0= -.16272814E+04  d E =-.220723E-05
       N       E                     dE             d eps       ncg     rms          rms(c)
DAV:   1    -0.162728235291E+04   -0.12695E-05   -0.46100E-05 11254   0.940E-03    0.215E-03
DAV:   2    -0.162728235082E+04    0.20847E-05   -0.67910E-07  6283   0.131E-03    0.108E-03
DAV:   3    -0.162728234935E+04    0.14758E-05   -0.22943E-07  6317   0.692E-04    0.349E-04
DAV:   4    -0.162728234892E+04    0.42541E-06   -0.54712E-08  6317   0.494E-04    0.194E-04
DAV:   5    -0.162728234872E+04    0.20204E-06   -0.19973E-08  6317   0.302E-04
  33 F= -.16272823E+04 E0= -.16272814E+04  d E =0.292860E-05
       N       E                     dE             d eps       ncg     rms          rms(c)
DAV:   1    -0.162728234922E+04   -0.29776E-06   -0.18299E-04 12028   0.172E-02    0.200E-03
DAV:   2    -0.162728235025E+04   -0.10327E-05   -0.10510E-06  6266   0.168E-03    0.131E-03
DAV:   3    -0.162728235122E+04   -0.96079E-06   -0.37929E-07  6258   0.891E-04    0.347E-04
DAV:   4    -0.162728235147E+04   -0.25649E-06   -0.14970E-07  6242   0.627E-04    0.175E-04
DAV:   5    -0.162728235148E+04   -0.11872E-07   -0.76143E-08  6242   0.474E-04
  34 F= -.16272824E+04 E0= -.16272814E+04  d E =-.276167E-05
       N       E                     dE             d eps       ncg     rms          rms(c)
DAV:   1    -0.162728235241E+04   -0.94257E-06   -0.12337E-04 11996   0.140E-02    0.143E-03
DAV:   2    -0.162728235234E+04    0.76969E-07   -0.79724E-07  6242   0.146E-03    0.103E-03
DAV:   3    -0.162728235220E+04    0.13753E-06   -0.31652E-07  6242   0.838E-04    0.164E-04
DAV:   4    -0.162728235220E+04    0.34456E-08   -0.13713E-07  6242   0.598E-04    0.114E-04
DAV:   5    -0.162728235221E+04   -0.13957E-07   -0.76849E-08  6242   0.464E-04
  35 F= -.16272824E+04 E0= -.16272814E+04  d E =-.726709E-06
