       N       E                     dE             d eps       ncg     rms          rms(c)
DAV:   1     0.264419264864E+04    0.26442E+04   -0.31252E+05 12372   0.145E+03
DAV:   2    -0.118979793389E+04   -0.38340E+04   -0.36649E+04 14138   0.338E+02
DAV:   3    -0.169472092841E+04   -0.50492E+03   -0.47830E+03 18936   0.831E+01
DAV:   4    -0.172037283907E+04   -0.25652E+02   -0.24755E+02 17368   0.185E+01
DAV:   5    -0.172143053603E+04   -0.10577E+01   -0.10416E+01 19360   0.386E+00    0.456E+01
DAV:   6    -0.166403129436E+04    0.57399E+02   -0.11281E+02 18144   0.139E+01    0.236E+01
DAV:   7    -0.164713379713E+04    0.16897E+02   -0.72245E+01 17184   0.132E+01    0.122E+01
DAV:   8    -0.163996365102E+04    0.71701E+01   -0.29557E+01 16776   0.107E+01    0.381E+00
DAV:   9    -0.163947427692E+04    0.48937E+00   -0.84308E+00 17008   0.500E+00    0.180E+00
DAV:  10    -0.163950268384E+04   -0.28407E-01   -0.14455E+00 16952   0.167E+00    0.130E+00
DAV:  11    -0.163946609795E+04    0.36586E-01   -0.32428E-01 16376   0.784E-01    0.574E-01
DAV:  12    -0.163945594391E+04    0.10154E-01   -0.52150E-02 16344   0.380E-01    0.278E-01
DAV:  13    -0.163945421763E+04    0.17263E-02   -0.17327E-02 17256   0.181E-01    0.879E-02
DAV:  14    -0.163945408699E+04    0.13064E-03   -0.26534E-03 15608   0.927E-02    0.480E-02
DAV:  15    -0.163945408356E+04    0.34317E-05   -0.95686E-04 17232   0.429E-02    0.270E-02
DAV:  16    -0.163945406082E+04    0.22737E-04   -0.15946E-04 16512   0.204E-02    0.131E-02
DAV:  17    -0.163945404573E+04    0.15095E-04   -0.40349E-05 10056   0.110E-02    0.605E-03
DAV:  18    -0.163945403896E+04    0.67669E-05   -0.20293E-05  8096   0.690E-03
   1 F= -.16394540E+04 E0= -.16394552E+04  d E =-.163945E+04
       N       E                     dE             d eps       ncg     rms          rms(c)
DAV:   1    -0.164027554342E+04   -0.82150E+00   -0.27124E+02 12348   0.216E+01    0.490E+00
DAV:   2    -0.163943987975E+04    0.83566E+00   -0.60772E+00 17120   0.330E+00    0.242E+00
DAV:   3    -0.163922861913E+04    0.21126E+00   -0.11967E+00 16496   0.163E+00    0.146E+00
DAV:   4    -0.163914716919E+04    0.81450E-01   -0.37973E-01 16368   0.119E+00    0.616E-01
DAV:   5    -0.163913186162E+04    0.15308E-01   -0.15122E-01 15576   0.736E-01    0.269E-01
DAV:   6    -0.163913318053E+04   -0.13189E-02   -0.30557E-02 15984   0.265E-01    0.198E-01
DAV:   7    -0.163913342608E+04   -0.24555E-03   -0.70948E-03 16128   0.111E-01    0.104E-01
DAV:   8    -0.163913365935E+04   -0.23326E-03   -0.17063E-03 16032   0.656E-02    0.502E-02
DAV:   9    -0.163913355117E+04    0.10817E-03   -0.50824E-04 16944   0.404E-02    0.240E-02
DAV:  10    -0.163913353264E+04    0.18532E-04   -0.25755E-04 17136   0.220E-02    0.127E-02
DAV:  11    -0.163913353951E+04   -0.68693E-05   -0.31256E-05  9328   0.929E-03
   2 F= -.16391335E+04 E0= -.16391292E+04  d E =0.320499E+00
       N       E                     dE             d eps       ncg     rms          rms(c)
DAV:   1    -0.164113623820E+04   -0.20027E+01   -0.45316E+01 12348   0.107E+01    0.370E+00
DAV:   2    -0.164048183038E+04    0.65441E+00   -0.10143E+00 12880   0.147E+00    0.172E+00
DAV:   3    -0.164032450830E+04    0.15732E+00   -0.39152E-01 14160   0.984E-01    0.593E-01
DAV:   4    -0.164030707883E+04    0.17429E-01   -0.10141E-01 15496   0.604E-01    0.200E-01
DAV:   5    -0.164030559557E+04    0.14833E-02   -0.28333E-02 15600   0.331E-01    0.943E-02
DAV:   6    -0.164030639986E+04   -0.80430E-03   -0.59892E-03 16104   0.116E-01    0.662E-02
DAV:   7    -0.164030678472E+04   -0.38485E-03   -0.96511E-04 15936   0.438E-02    0.373E-02
DAV:   8    -0.164030698527E+04   -0.20055E-03   -0.26423E-04 14808   0.240E-02    0.185E-02
DAV:   9    -0.164030705713E+04   -0.71861E-04   -0.11021E-04 14536   0.160E-02    0.883E-03
DAV:  10    -0.164030707841E+04   -0.21283E-04   -0.34071E-05  9376   0.978E-03    0.409E-03
DAV:  11    -0.164030707752E+04    0.89585E-06   -0.78869E-06  7344   0.445E-03
   3 F= -.16403071E+04 E0= -.16403100E+04  d E =-.117354E+01
       N       E                     dE             d eps       ncg     rms          rms(c)
DAV:   1    -0.164043037200E+04   -0.12329E+00   -0.91025E+00 12348   0.400E+00    0.802E-01
DAV:   2    -0.164041564058E+04    0.14731E-01   -0.14972E-01 17616   0.560E-01    0.448E-01
DAV:   3    -0.164040954436E+04    0.60962E-02   -0.34855E-02 17672   0.308E-01    0.277E-01
DAV:   4    -0.164040559929E+04    0.39451E-02   -0.15251E-02 16816   0.242E-01    0.905E-02
DAV:   5    -0.164040537123E+04    0.22806E-03   -0.45194E-03 15816   0.115E-01    0.478E-02
DAV:   6    -0.164040541839E+04   -0.47163E-04   -0.75388E-04 16456   0.387E-02    0.338E-02
DAV:   7    -0.164040542109E+04   -0.26984E-05   -0.15430E-04 16200   0.176E-02    0.191E-02
DAV:   8    -0.164040542596E+04   -0.48729E-05   -0.62051E-05 14248   0.132E-02
   4 F= -.16404054E+04 E0= -.16404069E+04  d E =-.983484E-01
       N       E                     dE             d eps       ncg     rms          rms(c)
DAV:   1    -0.164040884251E+04   -0.34214E-02   -0.79636E-01 12435   0.112E+00    0.151E-01
DAV:   2    -0.164040926781E+04   -0.42530E-03   -0.14009E-02 17536   0.173E-01    0.888E-02
DAV:   3    -0.164040913616E+04    0.13165E-03   -0.19148E-03 17549   0.742E-02    0.638E-02
DAV:   4    -0.164040905653E+04    0.79632E-04   -0.45434E-04 17928   0.416E-02    0.359E-02
DAV:   5    -0.164040903199E+04    0.24541E-04   -0.24875E-04 15096   0.239E-02    0.943E-03
DAV:   6    -0.164040903078E+04    0.12097E-05   -0.27213E-05  8720   0.837E-03
   5 F= -.16404090E+04 E0= -.16404107E+04  d E =-.360481E-02
       N       E                     dE             d eps       ncg     rms          rms(c)
DAV:   1    -0.164040974800E+04   -0.71601E-03   -0.67862E-02 12591   0.339E-01    0.649E-02
DAV:   2    -0.164040969487E+04    0.53129E-04   -0.12024E-03 17120   0.536E-02    0.336E-02
DAV:   3    -0.164040968248E+04    0.12385E-04   -0.24698E-04 17735   0.274E-02    0.227E-02
DAV:   4    -0.164040968016E+04    0.23256E-05   -0.80752E-05 15376   0.181E-02    0.104E-02
DAV:   5    -0.164040968967E+04   -0.95066E-05   -0.31024E-05  8272   0.950E-03
   6 F= -.16404097E+04 E0= -.16404114E+04  d E =-.658890E-03
       N       E                     dE             d eps       ncg     rms          rms(c)
DAV:   1    -0.164040994575E+04   -0.26559E-03   -0.28116E-02 12600   0.214E-01    0.318E-02
DAV:   2    -0.164040991847E+04    0.27286E-04   -0.33408E-04 16056   0.354E-02    0.195E-02
DAV:   3    -0.164040990014E+04    0.18323E-04   -0.79002E-05 14608   0.174E-02    0.142E-02
DAV:   4    -0.164040988018E+04    0.19962E-04   -0.23532E-05  8088   0.953E-03    0.420E-03
DAV:   5    -0.164040987698E+04    0.32018E-05   -0.84537E-06  7008   0.518E-03
   7 F= -.16404099E+04 E0= -.16404116E+04  d E =-.187313E-03
       N       E                     dE             d eps       ncg     rms          rms(c)
DAV:   1    -0.164040993862E+04   -0.58439E-04   -0.66829E-03 12600   0.107E-01    0.198E-02
DAV:   2    -0.164040994443E+04   -0.58121E-05   -0.72851E-05 14704   0.148E-02    0.113E-02
DAV:   3    -0.164040994795E+04   -0.35215E-05   -0.17287E-05  9040   0.813E-03    0.717E-03
DAV:   4    -0.164040995547E+04   -0.75195E-05   -0.86560E-06  7016   0.589E-03    0.152E-03
DAV:   5    -0.164040995720E+04   -0.17306E-05   -0.32561E-06  6864   0.336E-03
   8 F= -.16404100E+04 E0= -.16404117E+04  d E =-.802245E-04
       N       E                     dE             d eps       ncg     rms          rms(c)
DAV:   1    -0.164041001783E+04   -0.62357E-04   -0.35101E-03 12600   0.769E-02    0.135E-02
DAV:   2    -0.164041000292E+04    0.14912E-04   -0.31989E-05  9648   0.112E-02    0.783E-03
DAV:   3    -0.164040999727E+04    0.56459E-05   -0.98272E-06  7512   0.781E-03    0.511E-03
DAV:   4    -0.164040998998E+04    0.72937E-05   -0.66578E-06  6864   0.513E-03    0.128E-03
DAV:   5    -0.164040998929E+04    0.68673E-06   -0.25903E-06  6832   0.324E-03
   9 F= -.16404100E+04 E0= -.16404117E+04  d E =-.320884E-04
       N       E                     dE             d eps       ncg     rms          rms(c)
DAV:   1    -0.164041001138E+04   -0.21402E-04   -0.27664E-03 12600   0.664E-02    0.810E-03
DAV:   2    -0.164041001510E+04   -0.37156E-05   -0.19455E-05  7752   0.852E-03    0.544E-03
DAV:   3    -0.164041001636E+04   -0.12657E-05   -0.59414E-06  6880   0.541E-03    0.371E-03
DAV:   4    -0.164041001941E+04   -0.30493E-05   -0.42894E-06  6744   0.387E-03    0.683E-04
DAV:   5    -0.164041001945E+04   -0.39499E-07   -0.19421E-06  6720   0.274E-03
  10 F= -.16404100E+04 E0= -.16404118E+04  d E =-.301591E-04
       N       E                     dE             d eps       ncg     rms          rms(c)
DAV:   1    -0.164041003781E+04   -0.18398E-04   -0.13123E-03 12600   0.461E-02    0.664E-03
DAV:   2    -0.164041003290E+04    0.49080E-05   -0.10371E-05  6688   0.585E-03    0.409E-03
DAV:   3    -0.164041003070E+04    0.22034E-05   -0.38187E-06  6552   0.409E-03    0.250E-03
DAV:   4    -0.164041002806E+04    0.26373E-05   -0.23547E-06  6552   0.310E-03    0.716E-04
DAV:   5    -0.164041002785E+04    0.20787E-06   -0.12325E-06  6552   0.209E-03
  11 F= -.16404100E+04 E0= -.16404118E+04  d E =-.840241E-05
       N       E                     dE             d eps       ncg     rms          rms(c)
DAV:   1    -0.164041003398E+04   -0.59185E-05   -0.57565E-04 12600   0.308E-02    0.490E-03
DAV:   2    -0.164041003694E+04   -0.29636E-05   -0.47247E-06  6576   0.367E-03    0.292E-03
DAV:   3    -0.164041003939E+04   -0.24503E-05   -0.20532E-06  6576   0.261E-03    0.118E-03
DAV:   4    -0.164041004060E+04   -0.12034E-05   -0.10263E-06  6552   0.214E-03    0.484E-04
DAV:   5    -0.164041004089E+04   -0.29324E-06   -0.57133E-07  6552   0.138E-03
  12 F= -.16404100E+04 E0= -.16404118E+04  d E =-.130369E-04
       N       E                     dE             d eps       ncg     rms          rms(c)
DAV:   1    -0.164041005144E+04   -0.10841E-04   -0.90365E-04 12600   0.378E-02    0.427E-03
DAV:   2    -0.164041005001E+04    0.14305E-05   -0.57698E-06  6720   0.414E-03    0.295E-03
DAV:   3    -0.164041004912E+04    0.89090E-06   -0.19868E-06  6696   0.258E-03    0.168E-03
DAV:   4    -0.164041004802E+04    0.10968E-05   -0.12102E-06  6552   0.212E-03    0.328E-04
DAV:   5    -0.164041004818E+04   -0.15844E-06   -0.62898E-07  6552   0.147E-03
  13 F= -.16404100E+04 E0= -.16404118E+04  d E =-.728794E-05
       N       E                     dE             d eps       ncg     rms          rms(c)
DAV:   1    -0.164041005289E+04   -0.48723E-05   -0.76198E-04 12600   0.348E-02    0.421E-03
DAV:   2    -0.164041005499E+04   -0.21010E-05   -0.50093E-06  6624   0.372E-03    0.282E-03
DAV:   3    -0.164041005681E+04   -0.18128E-05   -0.20157E-06  6552   0.231E-03    0.913E-04
DAV:   4    -0.164041005754E+04   -0.73226E-06   -0.96165E-07  6552   0.189E-03    0.366E-04
DAV:   5    -0.164041005754E+04   -0.39017E-08   -0.53854E-07  6552   0.132E-03
  14 F= -.16404101E+04 E0= -.16404118E+04  d E =-.936387E-05
       N       E                     dE             d eps       ncg     rms          rms(c)
DAV:   1    -0.164041006291E+04   -0.53766E-05   -0.12970E-04 12352   0.150E-02    0.300E-03
DAV:   2    -0.164041006021E+04    0.27090E-05   -0.14285E-06  6552   0.195E-03    0.162E-03
DAV:   3    -0.164041005836E+04    0.18498E-05   -0.67152E-07  6552   0.139E-03    0.606E-04
DAV:   4    -0.164041005767E+04    0.68401E-06   -0.30766E-07  6552   0.114E-03    0.287E-04
DAV:   5    -0.164041005744E+04    0.22757E-06   -0.17080E-07  6552   0.751E-04
  15 F= -.16404101E+04 E0= -.16404118E+04  d E =0.976261E-07
       N       E                     dE             d eps       ncg     rms          rms(c)
DAV:   1    -0.164041006101E+04   -0.33347E-05   -0.43921E-04 12568   0.263E-02    0.286E-03
DAV:   2    -0.164041006193E+04   -0.92315E-06   -0.25965E-06  6552   0.268E-03    0.202E-03
DAV:   3    -0.164041006282E+04   -0.89188E-06   -0.10316E-06  6552   0.157E-03    0.430E-04
DAV:   4    -0.164041006305E+04   -0.23077E-06   -0.45255E-07  6552   0.122E-03    0.218E-04
DAV:   5    -0.164041006300E+04    0.49197E-07   -0.25546E-07  6552   0.882E-04
  16 F= -.16404101E+04 E0= -.16404118E+04  d E =-.555882E-05
       N       E                     dE             d eps       ncg     rms          rms(c)
DAV:   1    -0.164041006848E+04   -0.54239E-05   -0.65508E-04 12600   0.321E-02    0.358E-03
DAV:   2    -0.164041006720E+04    0.12781E-05   -0.39458E-06  6552   0.331E-03    0.248E-03
DAV:   3    -0.164041006591E+04    0.12928E-05   -0.14944E-06  6552   0.191E-03    0.749E-04
DAV:   4    -0.164041006551E+04    0.40031E-06   -0.69841E-07  6552   0.152E-03    0.284E-04
DAV:   5    -0.164041006560E+04   -0.98587E-07   -0.38493E-07  6552   0.112E-03
  17 F= -.16404101E+04 E0= -.16404118E+04  d E =-.260052E-05
       N       E                     dE             d eps       ncg     rms          rms(c)
DAV:   1    -0.164041006405E+04    0.14554E-05   -0.16522E-05  6832   0.667E-03    0.206E-03
DAV:   2    -0.164041006598E+04   -0.19282E-05   -0.95842E-07  6608   0.213E-03    0.106E-03
DAV:   3    -0.164041006777E+04   -0.17883E-05   -0.21601E-07  6552   0.642E-04    0.343E-04
DAV:   4    -0.164041006816E+04   -0.39314E-06   -0.93312E-08  6552   0.701E-04    0.172E-04
DAV:   5    -0.164041006846E+04   -0.30067E-06   -0.56148E-08  6552   0.355E-04
  18 F= -.16404101E+04 E0= -.16404118E+04  d E =-.285627E-05
       N       E                     dE             d eps       ncg     rms          rms(c)
DAV:   1    -0.164041007171E+04   -0.35527E-05   -0.29002E-04 12496   0.214E-02    0.227E-03
DAV:   2    -0.164041007110E+04    0.60749E-06   -0.16371E-06  6552   0.210E-03    0.161E-03
DAV:   3    -0.164041007039E+04    0.71304E-06   -0.61240E-07  6552   0.114E-03    0.367E-04
DAV:   4    -0.164041007024E+04    0.15557E-06   -0.26363E-07  6552   0.844E-04    0.168E-04
DAV:   5    -0.164041007030E+04   -0.60788E-07   -0.14258E-07  6552   0.637E-04
  19 F= -.16404101E+04 E0= -.16404118E+04  d E =-.183669E-05
       N       E                     dE             d eps       ncg     rms          rms(c)
DAV:   1    -0.164041007232E+04   -0.20799E-05   -0.57742E-04 12600   0.301E-02    0.316E-03
DAV:   2    -0.164041007318E+04   -0.86058E-06   -0.32844E-06  6552   0.302E-03    0.227E-03
DAV:   3    -0.164041007406E+04   -0.88108E-06   -0.13548E-06  6552   0.169E-03    0.308E-04
DAV:   4    -0.164041007412E+04   -0.61306E-07   -0.53698E-07  6552   0.112E-03    0.194E-04
DAV:   5    -0.164041007411E+04    0.38749E-08   -0.29165E-07  6552   0.861E-04
  20 F= -.16404101E+04 E0= -.16404118E+04  d E =-.381819E-05
       N       E                     dE             d eps       ncg     rms          rms(c)
DAV:   1    -0.164041007561E+04   -0.14922E-05   -0.52211E-05 11760   0.993E-03    0.230E-03
DAV:   2    -0.164041007334E+04    0.22741E-05   -0.66110E-07  6552   0.128E-03    0.117E-03
DAV:   3    -0.164041007166E+04    0.16796E-05   -0.25240E-07  6552   0.724E-04    0.332E-04
DAV:   4    -0.164041007122E+04    0.44033E-06   -0.58565E-08  6552   0.521E-04    0.165E-04
DAV:   5    -0.164041007104E+04    0.18002E-06   -0.21224E-08  6552   0.298E-04
  21 F= -.16404101E+04 E0= -.16404118E+04  d E =0.307791E-05
       N       E                     dE             d eps       ncg     rms          rms(c)
DAV:   1    -0.164041007205E+04   -0.83518E-06   -0.22635E-04 12384   0.189E-02    0.204E-03
DAV:   2    -0.164041007282E+04   -0.76990E-06   -0.12565E-06  6552   0.188E-03    0.141E-03
DAV:   3    -0.164041007365E+04   -0.83018E-06   -0.45698E-07  6552   0.983E-04    0.223E-04
DAV:   4    -0.164041007373E+04   -0.78192E-07   -0.16990E-07  6552   0.645E-04    0.131E-04
DAV:   5    -0.164041007372E+04    0.10818E-07   -0.88493E-08  6552   0.481E-04
  22 F= -.16404101E+04 E0= -.16404118E+04  d E =-.268265E-05
       N       E                     dE             d eps       ncg     rms          rms(c)
DAV:   1    -0.164041007528E+04   -0.15454E-05   -0.25922E-04 12440   0.202E-02    0.209E-03
DAV:   2    -0.164041007505E+04    0.22923E-06   -0.15502E-06  6552   0.209E-03    0.151E-03
DAV:   3    -0.164041007467E+04    0.37760E-06   -0.61683E-07  6552   0.116E-03    0.206E-04
DAV:   4    -0.164041007467E+04   -0.15148E-08   -0.25278E-07  6552   0.788E-04    0.140E-04
DAV:   5    -0.164041007470E+04   -0.30102E-07   -0.13916E-07  6552   0.608E-04
  23 F= -.16404101E+04 E0= -.16404118E+04  d E =-.980960E-06
       N       E                     dE             d eps       ncg     rms          rms(c)
DAV:   1    -0.164041007293E+04    0.17447E-05   -0.13076E-05  6552   0.571E-03    0.166E-03
DAV:   2    -0.164041007449E+04   -0.15647E-05   -0.68655E-07  6552   0.176E-03    0.851E-04
DAV:   3    -0.164041007591E+04   -0.14166E-05   -0.10443E-07  6552   0.487E-04    0.281E-04
DAV:   4    -0.164041007626E+04   -0.35104E-06   -0.30825E-08  6552   0.409E-04    0.130E-04
DAV:   5    -0.164041007647E+04   -0.21502E-06   -0.17433E-08  6552   0.225E-04
  24 F= -.16404101E+04 E0= -.16404118E+04  d E =-.177261E-05
       N       E                     dE             d eps       ncg     rms          rms(c)
DAV:   1    -0.164041007837E+04   -0.21136E-05   -0.85837E-05 12224   0.118E-02    0.159E-03
DAV:   2    -0.164041007732E+04    0.10529E-05   -0.61097E-07  6552   0.126E-03    0.980E-04
DAV:   3    -0.164041007641E+04    0.91026E-06   -0.21792E-07  6544   0.688E-04    0.292E-04
DAV:   4    -0.164041007615E+04    0.25443E-06   -0.83816E-08  6528   0.498E-04    0.142E-04
DAV:   5    -0.164041007613E+04    0.28474E-07   -0.41665E-08  6528   0.361E-04
  25 F= -.16404101E+04 E0= -.16404118E+04  d E =0.347456E-06
       N       E                     dE             d eps       ncg     rms          rms(c)
DAV:   1    -0.164041007654E+04   -0.38802E-06   -0.68887E-05 12128   0.104E-02    0.110E-03
DAV:   2    -0.164041007665E+04   -0.11237E-06   -0.55765E-07  6544   0.120E-03    0.772E-04
DAV:   3    -0.164041007677E+04   -0.11353E-06   -0.20095E-07  6552   0.658E-04    0.144E-04
DAV:   4    -0.164041007677E+04    0.28745E-08   -0.76223E-08  6552   0.427E-04    0.659E-05
DAV:   5    -0.164041007677E+04   -0.23065E-08   -0.41215E-08  6552   0.317E-04
  26 F= -.16404101E+04 E0= -.16404118E+04  d E =-.641830E-06
