       N       E                     dE             d eps       ncg     rms          rms(c)
DAV:   1     0.231077632788E+04    0.23108E+04   -0.29583E+05 11816   0.143E+03
DAV:   2    -0.120141891662E+04   -0.35122E+04   -0.33687E+04 13708   0.308E+02
DAV:   3    -0.164577887676E+04   -0.44436E+03   -0.41342E+03 18176   0.817E+01
DAV:   4    -0.167076909375E+04   -0.24990E+02   -0.23414E+02 16576   0.176E+01
DAV:   5    -0.167184874632E+04   -0.10797E+01   -0.10612E+01 18320   0.410E+00    0.422E+01
DAV:   6    -0.162589399549E+04    0.45955E+02   -0.14236E+02 17936   0.163E+01    0.234E+01
DAV:   7    -0.161249784235E+04    0.13396E+02   -0.93034E+01 17680   0.157E+01    0.170E+01
DAV:   8    -0.160238677011E+04    0.10111E+02   -0.55283E+01 17104   0.125E+01    0.853E+00
DAV:   9    -0.159828119087E+04    0.41056E+01   -0.21069E+01 16752   0.796E+00    0.285E+00
DAV:  10    -0.159826699849E+04    0.14192E-01   -0.45017E+00 16632   0.292E+00    0.168E+00
DAV:  11    -0.159824217775E+04    0.24821E-01   -0.48243E-01 15392   0.101E+00    0.109E+00
DAV:  12    -0.159822693987E+04    0.15238E-01   -0.19750E-01 14576   0.718E-01    0.638E-01
DAV:  13    -0.159821353947E+04    0.13400E-01   -0.53023E-02 15136   0.448E-01    0.386E-01
DAV:  14    -0.159820809463E+04    0.54448E-02   -0.21357E-02 14368   0.213E-01    0.144E-01
DAV:  15    -0.159820752305E+04    0.57158E-03   -0.60771E-03 15160   0.125E-01    0.671E-02
DAV:  16    -0.159820748535E+04    0.37695E-04   -0.20163E-03 16248   0.696E-02    0.411E-02
DAV:  17    -0.159820744201E+04    0.43340E-04   -0.43475E-04 15656   0.330E-02    0.224E-02
DAV:  18    -0.159820742049E+04    0.21524E-04   -0.11960E-04 14880   0.194E-02    0.142E-02
DAV:  19    -0.159820740708E+04    0.13411E-04   -0.42572E-05  9904   0.114E-02    0.726E-03
DAV:  20    -0.159820740196E+04    0.51131E-05   -0.20344E-05  7568   0.697E-03
   1 F= -.15982074E+04 E0= -.15982005E+04  d E =-.159821E+04
       N       E                     dE             d eps       ncg     rms          rms(c)
DAV:   1    -0.160117175120E+04   -0.29643E+01   -0.10436E+03 11816   0.483E+01    0.170E+01
DAV:   2    -0.158922515279E+04    0.11947E+02   -0.53386E+01 17744   0.100E+01    0.907E+00
DAV:   3    -0.158628283887E+04    0.29423E+01   -0.28070E+01 19552   0.774E+00    0.655E+00
DAV:   4    -0.158442395947E+04    0.18589E+01   -0.96791E+00 19536   0.514E+00    0.424E+00
DAV:   5    -0.158352634895E+04    0.89761E+00   -0.57300E+00 17552   0.347E+00    0.150E+00
DAV:   6    -0.158346280722E+04    0.63542E-01   -0.11674E+00 15920   0.160E+00    0.866E-01
DAV:   7    -0.158345825249E+04    0.45547E-02   -0.20969E-01 16008   0.684E-01    0.614E-01
DAV:   8    -0.158345515091E+04    0.31016E-02   -0.62577E-02 16672   0.325E-01    0.321E-01
DAV:   9    -0.158345944382E+04   -0.42929E-02   -0.35846E-02 17592   0.229E-01    0.217E-01
DAV:  10    -0.158345882923E+04    0.61459E-03   -0.10070E-02 16544   0.172E-01    0.152E-01
DAV:  11    -0.158345802806E+04    0.80117E-03   -0.50246E-03 18184   0.937E-02    0.615E-02
DAV:  12    -0.158345809822E+04   -0.70164E-04   -0.16405E-03 17816   0.494E-02    0.427E-02
DAV:  13    -0.158345816487E+04   -0.66652E-04   -0.41253E-04 16368   0.310E-02    0.299E-02
DAV:  14    -0.158345816818E+04   -0.33075E-05   -0.19929E-04 17120   0.192E-02    0.128E-02
DAV:  15    -0.158345816908E+04   -0.89958E-06   -0.33788E-05  8264   0.941E-03
   2 F= -.15834582E+04 E0= -.15834737E+04  d E =0.147492E+02
       N       E                     dE             d eps       ncg     rms          rms(c)
DAV:   1    -0.161097016951E+04   -0.27512E+02   -0.46832E+02 11816   0.357E+01    0.122E+01
DAV:   2    -0.160429347785E+04    0.66767E+01   -0.16464E+01 15880   0.628E+00    0.572E+00
DAV:   3    -0.160323073214E+04    0.10627E+01   -0.80709E+00 16664   0.440E+00    0.422E+00
DAV:   4    -0.160232724753E+04    0.90348E+00   -0.35473E+00 17528   0.359E+00    0.214E+00
DAV:   5    -0.160208851906E+04    0.23873E+00   -0.17401E+00 16488   0.218E+00    0.716E-01
DAV:   6    -0.160208407013E+04    0.44489E-02   -0.35098E-01 14744   0.935E-01    0.451E-01
DAV:   7    -0.160208720516E+04   -0.31350E-02   -0.52527E-02 16072   0.329E-01    0.329E-01
DAV:   8    -0.160208984145E+04   -0.26363E-02   -0.17301E-02 15872   0.175E-01    0.151E-01
DAV:   9    -0.160209328499E+04   -0.34435E-02   -0.90098E-03 14672   0.124E-01    0.113E-01
DAV:  10    -0.160209309508E+04    0.18991E-03   -0.18052E-03 14944   0.739E-02    0.646E-02
DAV:  11    -0.160209311661E+04   -0.21534E-04   -0.14838E-03 17200   0.537E-02    0.313E-02
DAV:  12    -0.160209332111E+04   -0.20449E-03   -0.43290E-04 15544   0.287E-02    0.331E-02
DAV:  13    -0.160209333975E+04   -0.18637E-04   -0.10480E-04 13888   0.148E-02    0.160E-02
DAV:  14    -0.160209333185E+04    0.79002E-05   -0.32112E-05  7736   0.867E-03
   3 F= -.16020933E+04 E0= -.16020895E+04  d E =-.186352E+02
       N       E                     dE             d eps       ncg     rms          rms(c)
DAV:   1    -0.160218003827E+04   -0.86699E-01   -0.13307E+01 11816   0.470E+00    0.572E-01
DAV:   2    -0.160219401711E+04   -0.13979E-01   -0.24292E-01 17488   0.712E-01    0.451E-01
DAV:   3    -0.160218521837E+04    0.87987E-02   -0.57308E-02 18240   0.421E-01    0.296E-01
DAV:   4    -0.160218339953E+04    0.18188E-02   -0.11065E-02 18480   0.167E-01    0.196E-01
DAV:   5    -0.160218250719E+04    0.89235E-03   -0.68742E-03 15800   0.124E-01    0.701E-02
DAV:   6    -0.160218240980E+04    0.97384E-04   -0.17735E-03 15872   0.714E-02    0.396E-02
DAV:   7    -0.160218235631E+04    0.53490E-04   -0.41112E-04 15872   0.353E-02    0.245E-02
DAV:   8    -0.160218233820E+04    0.18109E-04   -0.11024E-04 13904   0.154E-02    0.145E-02
DAV:   9    -0.160218233392E+04    0.42827E-05   -0.36923E-05  9456   0.102E-02
   4 F= -.16021823E+04 E0= -.16021782E+04  d E =-.890021E-01
       N       E                     dE             d eps       ncg     rms          rms(c)
DAV:   1    -0.160220179806E+04   -0.19460E-01   -0.37097E+00 11816   0.250E+00    0.377E-01
DAV:   2    -0.160220512184E+04   -0.33238E-02   -0.82675E-02 17944   0.463E-01    0.313E-01
DAV:   3    -0.160219911278E+04    0.60091E-02   -0.29087E-02 18408   0.299E-01    0.173E-01
DAV:   4    -0.160219822668E+04    0.88610E-03   -0.44862E-03 17504   0.108E-01    0.114E-01
DAV:   5    -0.160219778844E+04    0.43824E-03   -0.25971E-03 15816   0.787E-02    0.479E-02
DAV:   6    -0.160219772617E+04    0.62269E-04   -0.73493E-04 15560   0.469E-02    0.278E-02
DAV:   7    -0.160219770431E+04    0.21855E-04   -0.18153E-04 15288   0.240E-02    0.177E-02
DAV:   8    -0.160219770646E+04   -0.21463E-05   -0.53314E-05 11336   0.106E-02
   5 F= -.16021977E+04 E0= -.16021938E+04  d E =-.153725E-01
       N       E                     dE             d eps       ncg     rms          rms(c)
DAV:   1    -0.160220294105E+04   -0.52367E-02   -0.25848E-01 11960   0.819E-01    0.274E-01
DAV:   2    -0.160219977198E+04    0.31691E-02   -0.97278E-03 16656   0.148E-01    0.130E-01
DAV:   3    -0.160219930086E+04    0.47112E-03   -0.48592E-03 17200   0.109E-01    0.966E-02
DAV:   4    -0.160219890578E+04    0.39508E-03   -0.18756E-03 17840   0.805E-02    0.509E-02
DAV:   5    -0.160219883830E+04    0.67481E-04   -0.91517E-04 16432   0.494E-02    0.171E-02
DAV:   6    -0.160219884661E+04   -0.83076E-05   -0.18632E-04 14624   0.219E-02    0.102E-02
DAV:   7    -0.160219884706E+04   -0.44839E-06   -0.22162E-05  7200   0.780E-03
   6 F= -.16021988E+04 E0= -.16021945E+04  d E =-.114060E-02
       N       E                     dE             d eps       ncg     rms          rms(c)
DAV:   1    -0.160220512623E+04   -0.62796E-02   -0.41251E-01 11912   0.856E-01    0.163E-01
DAV:   2    -0.160220497064E+04    0.15559E-03   -0.10193E-02 17840   0.168E-01    0.122E-01
DAV:   3    -0.160220406538E+04    0.90526E-03   -0.43903E-03 18584   0.116E-01    0.699E-02
DAV:   4    -0.160220384901E+04    0.21637E-03   -0.79481E-04 16800   0.464E-02    0.413E-02
DAV:   5    -0.160220374675E+04    0.10226E-03   -0.41534E-04 15744   0.323E-02    0.168E-02
DAV:   6    -0.160220372968E+04    0.17064E-04   -0.10349E-04 14336   0.181E-02    0.101E-02
DAV:   7    -0.160220372680E+04    0.28823E-05   -0.20688E-05  7696   0.891E-03
   7 F= -.16022037E+04 E0= -.16021995E+04  d E =-.487974E-02
       N       E                     dE             d eps       ncg     rms          rms(c)
DAV:   1    -0.160220476954E+04   -0.10399E-02   -0.13457E-01 11936   0.471E-01    0.536E-02
DAV:   2    -0.160220496357E+04   -0.19403E-03   -0.19191E-03 17432   0.748E-02    0.534E-02
DAV:   3    -0.160220479692E+04    0.16665E-03   -0.66238E-04 17976   0.463E-02    0.300E-02
DAV:   4    -0.160220478374E+04    0.13181E-04   -0.10887E-04 14592   0.163E-02    0.151E-02
DAV:   5    -0.160220478178E+04    0.19656E-05   -0.47822E-05 10960   0.123E-02
   8 F= -.16022048E+04 E0= -.16022005E+04  d E =-.105498E-02
       N       E                     dE             d eps       ncg     rms          rms(c)
DAV:   1    -0.160220526457E+04   -0.48082E-03   -0.50065E-02 11972   0.301E-01    0.583E-02
DAV:   2    -0.160220516125E+04    0.10332E-03   -0.96754E-04 17256   0.492E-02    0.381E-02
DAV:   3    -0.160220508651E+04    0.74741E-04   -0.41111E-04 18952   0.358E-02    0.254E-02
DAV:   4    -0.160220504092E+04    0.45589E-04   -0.94529E-05 14848   0.167E-02    0.135E-02
DAV:   5    -0.160220501812E+04    0.22802E-04   -0.42378E-05  9584   0.113E-02    0.516E-03
DAV:   6    -0.160220501446E+04    0.36548E-05   -0.10569E-05  6792   0.709E-03
   9 F= -.16022050E+04 E0= -.16022008E+04  d E =-.232684E-03
       N       E                     dE             d eps       ncg     rms          rms(c)
DAV:   1    -0.160220540873E+04   -0.39062E-03   -0.12454E-02 11972   0.160E-01    0.404E-02
DAV:   2    -0.160220537781E+04    0.30926E-04   -0.21332E-04 16416   0.210E-02    0.199E-02
DAV:   3    -0.160220538110E+04   -0.32945E-05   -0.73911E-05 13824   0.134E-02    0.129E-02
DAV:   4    -0.160220538479E+04   -0.36836E-05   -0.24674E-05  8880   0.105E-02    0.691E-03
DAV:   5    -0.160220539089E+04   -0.61042E-05   -0.11143E-05  6712   0.688E-03
  10 F= -.16022054E+04 E0= -.16022012E+04  d E =-.376428E-03
       N       E                     dE             d eps       ncg     rms          rms(c)
DAV:   1    -0.160220568381E+04   -0.29902E-03   -0.31482E-02 11942   0.228E-01    0.241E-02
DAV:   2    -0.160220570424E+04   -0.20437E-04   -0.32956E-04 17440   0.277E-02    0.208E-02
DAV:   3    -0.160220568606E+04    0.18183E-04   -0.73639E-05 13342   0.168E-02    0.143E-02
DAV:   4    -0.160220567875E+04    0.73075E-05   -0.21017E-05  7168   0.755E-03    0.577E-03
DAV:   5    -0.160220567644E+04    0.23140E-05   -0.78631E-06  6538   0.601E-03
  11 F= -.16022057E+04 E0= -.16022014E+04  d E =-.285550E-03
       N       E                     dE             d eps       ncg     rms          rms(c)
DAV:   1    -0.160220602577E+04   -0.34701E-03   -0.96461E-02 11876   0.398E-01    0.390E-02
DAV:   2    -0.160220609315E+04   -0.67382E-04   -0.86088E-04 17176   0.410E-02    0.316E-02
DAV:   3    -0.160220607299E+04    0.20158E-04   -0.13825E-04 16120   0.215E-02    0.242E-02
DAV:   4    -0.160220606726E+04    0.57300E-05   -0.63597E-05 12328   0.121E-02    0.545E-03
DAV:   5    -0.160220606776E+04   -0.49683E-06   -0.10878E-05  7298   0.710E-03
  12 F= -.16022061E+04 E0= -.16022018E+04  d E =-.391320E-03
       N       E                     dE             d eps       ncg     rms          rms(c)
DAV:   1    -0.160220602217E+04    0.45088E-04   -0.89588E-03 11936   0.127E-01    0.229E-02
DAV:   2    -0.160220598707E+04    0.35107E-04   -0.92690E-05 14200   0.141E-02    0.126E-02
DAV:   3    -0.160220597570E+04    0.11367E-04   -0.22981E-05  8590   0.936E-03    0.912E-03
DAV:   4    -0.160220596351E+04    0.12190E-04   -0.90246E-06  7296   0.729E-03    0.402E-03
DAV:   5    -0.160220595753E+04    0.59784E-05   -0.53514E-06  6208   0.423E-03
  13 F= -.16022060E+04 E0= -.16022017E+04  d E =0.110227E-03
       N       E                     dE             d eps       ncg     rms          rms(c)
DAV:   1    -0.160220613527E+04   -0.17176E-03   -0.24253E-02 11930   0.200E-01    0.195E-02
DAV:   2    -0.160220615062E+04   -0.15351E-04   -0.18838E-04 16848   0.183E-02    0.147E-02
DAV:   3    -0.160220614890E+04    0.17243E-05   -0.14099E-05  7944   0.776E-03    0.113E-02
DAV:   4    -0.160220615049E+04   -0.15888E-05   -0.14164E-05  6488   0.671E-03    0.214E-03
DAV:   5    -0.160220615105E+04   -0.56325E-06   -0.34059E-06  6256   0.431E-03
  14 F= -.16022062E+04 E0= -.16022019E+04  d E =-.193517E-03
       N       E                     dE             d eps       ncg     rms          rms(c)
DAV:   1    -0.160220630469E+04   -0.15420E-03   -0.27829E-02 11912   0.214E-01    0.202E-02
DAV:   2    -0.160220631721E+04   -0.12520E-04   -0.23696E-04 17248   0.199E-02    0.158E-02
DAV:   3    -0.160220631296E+04    0.42488E-05   -0.15660E-05  8108   0.818E-03    0.122E-02
DAV:   4    -0.160220630659E+04    0.63731E-05   -0.16505E-05  6640   0.720E-03    0.262E-03
DAV:   5    -0.160220630629E+04    0.29489E-06   -0.42010E-06  6280   0.488E-03
  15 F= -.16022063E+04 E0= -.16022020E+04  d E =-.155243E-03
       N       E                     dE             d eps       ncg     rms          rms(c)
DAV:   1    -0.160220635273E+04   -0.46143E-04   -0.60098E-03 11936   0.103E-01    0.166E-02
DAV:   2    -0.160220635924E+04   -0.65049E-05   -0.63730E-05 13248   0.109E-02    0.909E-03
DAV:   3    -0.160220636351E+04   -0.42764E-05   -0.12686E-05  6758   0.604E-03    0.561E-03
DAV:   4    -0.160220636773E+04   -0.42198E-05   -0.46152E-06  6232   0.476E-03    0.290E-03
DAV:   5    -0.160220637037E+04   -0.26327E-05   -0.25479E-06  6184   0.356E-03
  16 F= -.16022064E+04 E0= -.16022021E+04  d E =-.640722E-04
       N       E                     dE             d eps       ncg     rms          rms(c)
DAV:   1    -0.160220643688E+04   -0.69148E-04   -0.19753E-03 11960   0.607E-02    0.129E-02
DAV:   2    -0.160220642023E+04    0.16653E-04   -0.21128E-05  6488   0.758E-03    0.663E-03
DAV:   3    -0.160220641483E+04    0.53984E-05   -0.88108E-06  6304   0.600E-03    0.448E-03
DAV:   4    -0.160220641009E+04    0.47427E-05   -0.40561E-06  6184   0.455E-03    0.204E-03
DAV:   5    -0.160220640764E+04    0.24468E-05   -0.22617E-06  6160   0.277E-03
  17 F= -.16022064E+04 E0= -.16022021E+04  d E =-.372739E-04
       N       E                     dE             d eps       ncg     rms          rms(c)
DAV:   1    -0.160220646399E+04   -0.53903E-04   -0.61657E-03 11924   0.100E-01    0.988E-03
DAV:   2    -0.160220646760E+04   -0.36148E-05   -0.46653E-05 11096   0.921E-03    0.749E-03
DAV:   3    -0.160220646791E+04   -0.31023E-06   -0.89867E-06  6302   0.505E-03    0.404E-03
DAV:   4    -0.160220646847E+04   -0.55408E-06   -0.44795E-06  6168   0.413E-03    0.120E-03
DAV:   5    -0.160220646843E+04    0.42861E-07   -0.17649E-06  6160   0.249E-03
  18 F= -.16022065E+04 E0= -.16022022E+04  d E =-.607862E-04
       N       E                     dE             d eps       ncg     rms          rms(c)
DAV:   1    -0.160220656375E+04   -0.95279E-04   -0.22275E-02 11888   0.191E-01    0.193E-02
DAV:   2    -0.160220656675E+04   -0.30056E-05   -0.19596E-04 17056   0.176E-02    0.142E-02
DAV:   3    -0.160220656049E+04    0.62673E-05   -0.13413E-05  7598   0.670E-03    0.946E-03
DAV:   4    -0.160220655418E+04    0.63053E-05   -0.91608E-06  6776   0.674E-03    0.339E-03
DAV:   5    -0.160220655243E+04    0.17527E-05   -0.37522E-06  6252   0.471E-03
  19 F= -.16022066E+04 E0= -.16022023E+04  d E =-.840018E-04
       N       E                     dE             d eps       ncg     rms          rms(c)
DAV:   1    -0.160220652426E+04    0.29923E-04   -0.28736E-03 11924   0.703E-02    0.107E-02
DAV:   2    -0.160220652857E+04   -0.43124E-05   -0.18241E-05  6264   0.704E-03    0.617E-03
DAV:   3    -0.160220653166E+04   -0.30943E-05   -0.65738E-06  6136   0.460E-03    0.379E-03
DAV:   4    -0.160220653415E+04   -0.24810E-05   -0.31841E-06  6160   0.368E-03    0.177E-03
DAV:   5    -0.160220653562E+04   -0.14700E-05   -0.16527E-06  6160   0.246E-03
  20 F= -.16022065E+04 E0= -.16022022E+04  d E =0.168122E-04
       N       E                     dE             d eps       ncg     rms          rms(c)
DAV:   1    -0.160220658495E+04   -0.50801E-04   -0.64191E-03 11924   0.103E-01    0.943E-03
DAV:   2    -0.160220658525E+04   -0.29921E-06   -0.31812E-05  7664   0.887E-03    0.694E-03
DAV:   3    -0.160220658412E+04    0.11213E-05   -0.93329E-06  6148   0.472E-03    0.335E-03
DAV:   4    -0.160220658350E+04    0.62642E-06   -0.47527E-06  6160   0.400E-03    0.112E-03
DAV:   5    -0.160220658367E+04   -0.16747E-06   -0.22107E-06  6160   0.265E-03
  21 F= -.16022066E+04 E0= -.16022023E+04  d E =-.480502E-04
       N       E                     dE             d eps       ncg     rms          rms(c)
DAV:   1    -0.160220667098E+04   -0.87483E-04   -0.50594E-02 11840   0.288E-01    0.271E-02
DAV:   2    -0.160220669986E+04   -0.28882E-04   -0.42524E-04 17320   0.258E-02    0.208E-02
DAV:   3    -0.160220669267E+04    0.71894E-05   -0.34564E-05  9398   0.951E-03    0.865E-03
DAV:   4    -0.160220669223E+04    0.43966E-06   -0.15037E-05  8072   0.884E-03    0.380E-03
DAV:   5    -0.160220669119E+04    0.10389E-05   -0.40336E-06  6350   0.516E-03
  22 F= -.16022067E+04 E0= -.16022024E+04  d E =-.107529E-03
       N       E                     dE             d eps       ncg     rms          rms(c)
DAV:   1    -0.160220664222E+04    0.50017E-04   -0.18996E-02 11864   0.177E-01    0.187E-02
DAV:   2    -0.160220663781E+04    0.44060E-05   -0.14467E-04 16560   0.159E-02    0.134E-02
DAV:   3    -0.160220663003E+04    0.77780E-05   -0.12356E-05  7230   0.641E-03    0.836E-03
DAV:   4    -0.160220662316E+04    0.68669E-05   -0.78353E-06  6384   0.640E-03    0.288E-03
DAV:   5    -0.160220662154E+04    0.16269E-05   -0.30382E-06  6160   0.401E-03
  23 F= -.16022066E+04 E0= -.16022023E+04  d E =0.696563E-04
       N       E                     dE             d eps       ncg     rms          rms(c)
DAV:   1    -0.160220667291E+04   -0.49746E-04   -0.13953E-02 11876   0.151E-01    0.146E-02
DAV:   2    -0.160220668058E+04   -0.76719E-05   -0.10109E-04 15032   0.133E-02    0.111E-02
DAV:   3    -0.160220668024E+04    0.34684E-06   -0.11299E-05  6388   0.584E-03    0.543E-03
DAV:   4    -0.160220668112E+04   -0.88546E-06   -0.58486E-06  6208   0.532E-03    0.183E-03
DAV:   5    -0.160220668079E+04    0.32952E-06   -0.16198E-06  6160   0.291E-03
  24 F= -.16022067E+04 E0= -.16022024E+04  d E =-.592540E-04
       N       E                     dE             d eps       ncg     rms          rms(c)
DAV:   1    -0.160220671245E+04   -0.31327E-04   -0.99212E-03 11876   0.127E-01    0.119E-02
DAV:   2    -0.160220671643E+04   -0.39785E-05   -0.81167E-05 14384   0.115E-02    0.922E-03
DAV:   3    -0.160220671454E+04    0.18881E-05   -0.87144E-06  6408   0.514E-03    0.518E-03
DAV:   4    -0.160220671307E+04    0.14649E-05   -0.46678E-06  6184   0.456E-03    0.157E-03
DAV:   5    -0.160220671306E+04    0.12029E-07   -0.14343E-06  6160   0.278E-03
  25 F= -.16022067E+04 E0= -.16022024E+04  d E =-.322703E-04
       N       E                     dE             d eps       ncg     rms          rms(c)
DAV:   1    -0.160220670291E+04    0.10163E-04   -0.41624E-04 11936   0.291E-02    0.734E-03
DAV:   2    -0.160220670680E+04   -0.38929E-05   -0.50664E-06  6124   0.391E-03    0.357E-03
DAV:   3    -0.160220670946E+04   -0.26554E-05   -0.22197E-06  6118   0.303E-03    0.226E-03
DAV:   4    -0.160220671131E+04   -0.18494E-05   -0.93523E-07  6124   0.229E-03    0.105E-03
DAV:   5    -0.160220671262E+04   -0.13120E-05   -0.46478E-07  6124   0.135E-03
  26 F= -.16022067E+04 E0= -.16022024E+04  d E =0.441590E-06
       N       E                     dE             d eps       ncg     rms          rms(c)
DAV:   1    -0.160220673355E+04   -0.22243E-04   -0.18326E-03 11930   0.554E-02    0.680E-03
DAV:   2    -0.160220672885E+04    0.47028E-05   -0.10673E-05  6106   0.532E-03    0.423E-03
DAV:   3    -0.160220672677E+04    0.20770E-05   -0.36542E-06  6100   0.325E-03    0.268E-03
DAV:   4    -0.160220672489E+04    0.18827E-05   -0.17807E-06  6106   0.263E-03    0.129E-03
DAV:   5    -0.160220672404E+04    0.85373E-06   -0.99818E-07  6106   0.185E-03
  27 F= -.16022067E+04 E0= -.16022024E+04  d E =-.114143E-04
       N       E                     dE             d eps       ncg     rms          rms(c)
DAV:   1    -0.160220673171E+04   -0.68240E-05   -0.94800E-04 11924   0.393E-02    0.391E-03
DAV:   2    -0.160220673239E+04   -0.68105E-06   -0.58614E-06  6112   0.379E-03    0.288E-03
DAV:   3    -0.160220673274E+04   -0.34220E-06   -0.23173E-06  6088   0.236E-03    0.152E-03
DAV:   4    -0.160220673307E+04   -0.33129E-06   -0.13406E-06  6088   0.201E-03    0.458E-04
DAV:   5    -0.160220673307E+04   -0.22101E-08   -0.69334E-07  6088   0.140E-03
  28 F= -.16022067E+04 E0= -.16022024E+04  d E =-.903446E-05
       N       E                     dE             d eps       ncg     rms          rms(c)
DAV:   1    -0.160220674420E+04   -0.11133E-04   -0.14621E-03 11912   0.493E-02    0.576E-03
DAV:   2    -0.160220674084E+04    0.33586E-05   -0.96666E-06  6504   0.498E-03    0.372E-03
DAV:   3    -0.160220673931E+04    0.15284E-05   -0.35840E-06  6164   0.317E-03    0.233E-03
DAV:   4    -0.160220673781E+04    0.15016E-05   -0.18914E-06  6160   0.260E-03    0.110E-03
DAV:   5    -0.160220673724E+04    0.57502E-06   -0.11038E-06  6154   0.194E-03
  29 F= -.16022067E+04 E0= -.16022024E+04  d E =-.416714E-05
       N       E                     dE             d eps       ncg     rms          rms(c)
DAV:   1    -0.160220673514E+04    0.26669E-05   -0.66122E-05 11480   0.120E-02    0.335E-03
DAV:   2    -0.160220673758E+04   -0.24348E-05   -0.11732E-06  6088   0.187E-03    0.160E-03
DAV:   3    -0.160220673879E+04   -0.12086E-05   -0.51104E-07  6088   0.147E-03    0.107E-03
DAV:   4    -0.160220673973E+04   -0.94454E-06   -0.21408E-07  6088   0.106E-03    0.478E-04
DAV:   5    -0.160220674039E+04   -0.65353E-06   -0.10983E-07  6088   0.617E-04
  30 F= -.16022067E+04 E0= -.16022024E+04  d E =-.314966E-05
       N       E                     dE             d eps       ncg     rms          rms(c)
DAV:   1    -0.160220674541E+04   -0.56722E-05   -0.57646E-04 11924   0.307E-02    0.285E-03
DAV:   2    -0.160220674561E+04   -0.20418E-06   -0.30251E-06  6088   0.275E-03    0.211E-03
DAV:   3    -0.160220674564E+04   -0.28251E-07   -0.11191E-06  6082   0.157E-03    0.830E-04
DAV:   4    -0.160220674569E+04   -0.48123E-07   -0.57180E-07  6088   0.133E-03    0.370E-04
DAV:   5    -0.160220674569E+04   -0.79672E-08   -0.29893E-07  6088   0.931E-04
  31 F= -.16022067E+04 E0= -.16022024E+04  d E =-.530716E-05
       N       E                     dE             d eps       ncg     rms          rms(c)
DAV:   1    -0.160220676202E+04   -0.16330E-04   -0.11208E-02 11840   0.136E-01    0.130E-02
DAV:   2    -0.160220676455E+04   -0.25327E-05   -0.90811E-05 14952   0.122E-02    0.986E-03
DAV:   3    -0.160220676122E+04    0.33304E-05   -0.89359E-06  6690   0.512E-03    0.527E-03
DAV:   4    -0.160220675900E+04    0.22143E-05   -0.45607E-06  6280   0.472E-03    0.169E-03
DAV:   5    -0.160220675883E+04    0.16805E-06   -0.15216E-06  6162   0.300E-03
  32 F= -.16022068E+04 E0= -.16022024E+04  d E =-.131414E-04
       N       E                     dE             d eps       ncg     rms          rms(c)
DAV:   1    -0.160220676085E+04   -0.18453E-05   -0.89049E-04 11912   0.384E-02    0.412E-03
DAV:   2    -0.160220676307E+04   -0.22228E-05   -0.57498E-06  6124   0.367E-03    0.276E-03
DAV:   3    -0.160220676456E+04   -0.14916E-05   -0.22070E-06  6112   0.213E-03    0.119E-03
DAV:   4    -0.160220676553E+04   -0.96877E-06   -0.11362E-06  6088   0.169E-03    0.620E-04
DAV:   5    -0.160220676568E+04   -0.14657E-06   -0.62477E-07  6088   0.136E-03
  33 F= -.16022068E+04 E0= -.16022024E+04  d E =-.684315E-05
       N       E                     dE             d eps       ncg     rms          rms(c)
DAV:   1    -0.160220676654E+04   -0.10036E-05   -0.71112E-05 11448   0.107E-02    0.123E-03
DAV:   2    -0.160220676634E+04    0.19413E-06   -0.89971E-07  6088   0.144E-03    0.864E-04
DAV:   3    -0.160220676621E+04    0.13326E-06   -0.36665E-07  6088   0.969E-04    0.479E-04
DAV:   4    -0.160220676606E+04    0.15097E-06   -0.20603E-07  6088   0.757E-04    0.186E-04
DAV:   5    -0.160220676605E+04    0.77189E-08   -0.12241E-07  6088   0.628E-04
  34 F= -.16022068E+04 E0= -.16022024E+04  d E =-.370935E-06
       N       E                     dE             d eps       ncg     rms          rms(c)
DAV:   1    -0.160220676587E+04    0.18272E-06   -0.11262E-06  6088   0.147E-03    0.199E-04
DAV:   2    -0.160220676601E+04   -0.13517E-06   -0.83437E-08  6088   0.524E-04    0.130E-04
DAV:   3    -0.160220676607E+04   -0.56474E-07   -0.26886E-08  6088   0.263E-04    0.107E-04
DAV:   4    -0.160220676613E+04   -0.67445E-07   -0.15670E-08  6088   0.207E-04    0.551E-05
DAV:   5    -0.160220676617E+04   -0.37721E-07   -0.10271E-08  6088   0.147E-04
  35 F= -.16022068E+04 E0= -.16022024E+04  d E =-.121810E-06
       N       E                     dE             d eps       ncg     rms          rms(c)
DAV:   1    -0.160220676590E+04    0.22829E-06   -0.84851E-05 11516   0.120E-02    0.152E-03
DAV:   2    -0.160220676687E+04   -0.96838E-06   -0.65888E-07  6088   0.127E-03    0.925E-04
DAV:   3    -0.160220676735E+04   -0.48020E-06   -0.21801E-07  6082   0.781E-04    0.574E-04
DAV:   4    -0.160220676776E+04   -0.40791E-06   -0.10600E-07  6088   0.635E-04    0.264E-04
DAV:   5    -0.160220676794E+04   -0.18142E-06   -0.59131E-08  6088   0.445E-04
  36 F= -.16022068E+04 E0= -.16022024E+04  d E =-.177189E-05
       N       E                     dE             d eps       ncg     rms          rms(c)
DAV:   1    -0.160220676918E+04   -0.14178E-05   -0.61031E-06  6088   0.384E-03    0.105E-03
DAV:   2    -0.160220676818E+04    0.10005E-05   -0.38498E-07  6088   0.134E-03    0.515E-04
DAV:   3    -0.160220676770E+04    0.47918E-06   -0.74330E-08  6088   0.547E-04    0.407E-04
DAV:   4    -0.160220676729E+04    0.40913E-06   -0.40038E-08  6088   0.480E-04    0.176E-04
DAV:   5    -0.160220676703E+04    0.26040E-06   -0.22413E-08  6088   0.237E-04
  37 F= -.16022068E+04 E0= -.16022024E+04  d E =0.912856E-06
       N       E                     dE             d eps       ncg     rms          rms(c)
DAV:   1    -0.160220676740E+04   -0.10753E-06   -0.58727E-05 11248   0.983E-03    0.979E-04
DAV:   2    -0.160220676756E+04   -0.16646E-06   -0.56862E-07  6088   0.111E-03    0.672E-04
DAV:   3    -0.160220676769E+04   -0.12379E-06   -0.16170E-07  6088   0.602E-04    0.330E-04
DAV:   4    -0.160220676776E+04   -0.76174E-07   -0.74282E-08  6088   0.473E-04    0.880E-05
DAV:   5    -0.160220676776E+04    0.88216E-08   -0.37087E-08  6088   0.307E-04
  38 F= -.16022068E+04 E0= -.16022024E+04  d E =-.725542E-06
