       N       E                     dE             d eps       ncg     rms          rms(c)
DAV:   1     0.194211270600E+04    0.19421E+04   -0.27682E+05 11172   0.142E+03
DAV:   2    -0.118543859751E+04   -0.31276E+04   -0.30067E+04 12902   0.266E+02
DAV:   3    -0.157736774471E+04   -0.39193E+03   -0.35623E+03 17536   0.823E+01
DAV:   4    -0.160246360678E+04   -0.25096E+02   -0.22648E+02 15880   0.161E+01
DAV:   5    -0.160361754219E+04   -0.11539E+01   -0.11239E+01 16784   0.445E+00    0.379E+01
DAV:   6    -0.156671841296E+04    0.36899E+02   -0.10779E+02 17176   0.141E+01    0.221E+01
DAV:   7    -0.155559071930E+04    0.11128E+02   -0.91129E+01 16152   0.147E+01    0.166E+01
DAV:   8    -0.154858594619E+04    0.70048E+01   -0.55929E+01 16416   0.116E+01    0.111E+01
DAV:   9    -0.154146358741E+04    0.71224E+01   -0.25650E+01 16504   0.826E+00    0.360E+00
DAV:  10    -0.154115120288E+04    0.31238E+00   -0.56184E+00 16200   0.323E+00    0.143E+00
DAV:  11    -0.154115714675E+04   -0.59439E-02   -0.67905E-01 14896   0.117E+00    0.996E-01
DAV:  12    -0.154114628685E+04    0.10860E-01   -0.20902E-01 16184   0.666E-01    0.706E-01
DAV:  13    -0.154113222254E+04    0.14064E-01   -0.75524E-02 15024   0.433E-01    0.466E-01
DAV:  14    -0.154112415870E+04    0.80638E-02   -0.29215E-02 15488   0.237E-01    0.225E-01
DAV:  15    -0.154112274526E+04    0.14134E-02   -0.98187E-03 16376   0.147E-01    0.111E-01
DAV:  16    -0.154112247794E+04    0.26732E-03   -0.31485E-03 15376   0.823E-02    0.558E-02
DAV:  17    -0.154112245240E+04    0.25535E-04   -0.10333E-03 14592   0.452E-02    0.285E-02
DAV:  18    -0.154112245024E+04    0.21669E-05   -0.25644E-04 15928   0.248E-02    0.196E-02
DAV:  19    -0.154112243502E+04    0.15218E-04   -0.83192E-05 12832   0.147E-02    0.116E-02
DAV:  20    -0.154112242154E+04    0.13474E-04   -0.24778E-05  7064   0.871E-03    0.540E-03
DAV:  21    -0.154112241585E+04    0.56963E-05   -0.11281E-05  6576   0.536E-03
   1 F= -.15411224E+04 E0= -.15411236E+04  d E =-.154112E+04
       N       E                     dE             d eps       ncg     rms          rms(c)
DAV:   1    -0.154459061722E+04   -0.34682E+01   -0.26666E+03 11172   0.799E+01    0.276E+01
DAV:   2    -0.151485249070E+04    0.29738E+02   -0.16399E+02 18112   0.181E+01    0.177E+01
DAV:   3    -0.150592092220E+04    0.89316E+01   -0.93904E+01 18760   0.130E+01    0.134E+01
DAV:   4    -0.150230908055E+04    0.36118E+01   -0.37029E+01 19008   0.838E+00    0.110E+01
DAV:   5    -0.149708405731E+04    0.52250E+01   -0.27618E+01 18368   0.657E+00    0.493E+00
DAV:   6    -0.149636189796E+04    0.72216E+00   -0.89081E+00 18240   0.350E+00    0.305E+00
DAV:   7    -0.149618130728E+04    0.18059E+00   -0.14794E+00 17184   0.165E+00    0.216E+00
DAV:   8    -0.149609542219E+04    0.85885E-01   -0.56278E-01 17736   0.810E-01    0.985E-01
DAV:   9    -0.149609545887E+04   -0.36684E-04   -0.30210E-01 17872   0.544E-01    0.523E-01
DAV:  10    -0.149609126361E+04    0.41953E-02   -0.64023E-02 18176   0.350E-01    0.340E-01
DAV:  11    -0.149608767204E+04    0.35916E-02   -0.25147E-02 19504   0.210E-01    0.189E-01
DAV:  12    -0.149608805592E+04   -0.38388E-03   -0.95230E-03 17888   0.110E-01    0.130E-01
DAV:  13    -0.149608873207E+04   -0.67615E-03   -0.36707E-03 18096   0.769E-02    0.795E-02
DAV:  14    -0.149608879753E+04   -0.65458E-04   -0.17513E-03 18336   0.549E-02    0.456E-02
DAV:  15    -0.149608890518E+04   -0.10765E-03   -0.77926E-04 18392   0.310E-02    0.457E-02
DAV:  16    -0.149608884908E+04    0.56091E-04   -0.26971E-04 18808   0.203E-02    0.195E-02
DAV:  17    -0.149608884717E+04    0.19112E-05   -0.56973E-05 10912   0.988E-03
   2 F= -.14960888E+04 E0= -.14960934E+04  d E =0.450336E+02
       N       E                     dE             d eps       ncg     rms          rms(c)
DAV:   1    -0.157441306075E+04   -0.78324E+02   -0.13466E+03 11172   0.629E+01    0.193E+01
DAV:   2    -0.155917663794E+04    0.15236E+02   -0.48479E+01 17208   0.112E+01    0.101E+01
DAV:   3    -0.155565847443E+04    0.35182E+01   -0.30153E+01 16168   0.788E+00    0.747E+00
DAV:   4    -0.155396563658E+04    0.16928E+01   -0.12820E+01 16936   0.571E+00    0.541E+00
DAV:   5    -0.155238600900E+04    0.15796E+01   -0.73406E+00 16560   0.424E+00    0.205E+00
DAV:   6    -0.155223704159E+04    0.14897E+00   -0.19692E+00 15688   0.191E+00    0.857E-01
DAV:   7    -0.155225335373E+04   -0.16312E-01   -0.24629E-01 14280   0.698E-01    0.636E-01
DAV:   8    -0.155225791481E+04   -0.45611E-02   -0.49461E-02 16336   0.313E-01    0.383E-01
DAV:   9    -0.155226842811E+04   -0.10513E-01   -0.48069E-02 15944   0.260E-01    0.241E-01
DAV:  10    -0.155226805236E+04    0.37575E-03   -0.10888E-02 15256   0.164E-01    0.127E-01
DAV:  11    -0.155226799099E+04    0.61371E-04   -0.34337E-03 16032   0.817E-02    0.689E-02
DAV:  12    -0.155226818921E+04   -0.19822E-03   -0.14449E-03 15928   0.528E-02    0.436E-02
DAV:  13    -0.155226846149E+04   -0.27229E-03   -0.58090E-04 13496   0.343E-02    0.254E-02
DAV:  14    -0.155226847673E+04   -0.15234E-04   -0.13543E-04 12864   0.169E-02    0.122E-02
DAV:  15    -0.155226847176E+04    0.49662E-05   -0.27206E-05  7144   0.785E-03
   3 F= -.15522685E+04 E0= -.15522910E+04  d E =-.561796E+02
       N       E                     dE             d eps       ncg     rms          rms(c)
DAV:   1    -0.155271095413E+04   -0.44248E+00   -0.26617E+01 11172   0.737E+00    0.130E+00
DAV:   2    -0.155267128021E+04    0.39674E-01   -0.43824E-01 16184   0.786E-01    0.737E-01
DAV:   3    -0.155266523682E+04    0.60434E-02   -0.12849E-01 18208   0.506E-01    0.630E-01
DAV:   4    -0.155264756103E+04    0.17676E-01   -0.66519E-02 17680   0.405E-01    0.353E-01
DAV:   5    -0.155264200816E+04    0.55529E-02   -0.34033E-02 15536   0.264E-01    0.124E-01
DAV:   6    -0.155264181858E+04    0.18958E-03   -0.67566E-03 14720   0.122E-01    0.800E-02
DAV:   7    -0.155264179146E+04    0.27126E-04   -0.14817E-03 15672   0.608E-02    0.595E-02
DAV:   8    -0.155264174160E+04    0.49860E-04   -0.58752E-04 16576   0.358E-02    0.323E-02
DAV:   9    -0.155264176865E+04   -0.27052E-04   -0.24555E-04 14848   0.204E-02    0.199E-02
DAV:  10    -0.155264178120E+04   -0.12548E-04   -0.64953E-05 12040   0.133E-02    0.127E-02
DAV:  11    -0.155264178088E+04    0.31688E-06   -0.21265E-05  7312   0.897E-03
   4 F= -.15526418E+04 E0= -.15526618E+04  d E =-.373309E+00
       N       E                     dE             d eps       ncg     rms          rms(c)
DAV:   1    -0.155269892151E+04   -0.57140E-01   -0.40712E+00 11172   0.274E+00    0.455E-01
DAV:   2    -0.155270024840E+04   -0.13269E-02   -0.10708E-01 17560   0.471E-01    0.352E-01
DAV:   3    -0.155269484398E+04    0.54044E-02   -0.36375E-02 17856   0.296E-01    0.228E-01
DAV:   4    -0.155269296752E+04    0.18765E-02   -0.89481E-03 18536   0.139E-01    0.152E-01
DAV:   5    -0.155269210442E+04    0.86310E-03   -0.41659E-03 15640   0.883E-02    0.826E-02
DAV:   6    -0.155269184330E+04    0.26112E-03   -0.17611E-03 14976   0.595E-02    0.401E-02
DAV:   7    -0.155269179679E+04    0.46517E-04   -0.37514E-04 15832   0.327E-02    0.265E-02
DAV:   8    -0.155269179115E+04    0.56342E-05   -0.11156E-04 13496   0.150E-02    0.149E-02
DAV:   9    -0.155269179775E+04   -0.65972E-05   -0.52684E-05 10672   0.102E-02
   5 F= -.15526918E+04 E0= -.15527121E+04  d E =-.500169E-01
       N       E                     dE             d eps       ncg     rms          rms(c)
DAV:   1    -0.155271096051E+04   -0.19169E-01   -0.21580E+00 11172   0.196E+00    0.227E-01
DAV:   2    -0.155271381241E+04   -0.28519E-02   -0.38123E-02 17048   0.258E-01    0.211E-01
DAV:   3    -0.155271196628E+04    0.18461E-02   -0.98329E-03 17776   0.156E-01    0.129E-01
DAV:   4    -0.155271162580E+04    0.34048E-03   -0.23247E-03 17208   0.690E-02    0.917E-02
DAV:   5    -0.155271143076E+04    0.19504E-03   -0.14127E-03 15048   0.517E-02    0.416E-02
DAV:   6    -0.155271141442E+04    0.16337E-04   -0.48234E-04 15608   0.333E-02    0.225E-02
DAV:   7    -0.155271139387E+04    0.20550E-04   -0.13605E-04 14592   0.197E-02    0.121E-02
DAV:   8    -0.155271138539E+04    0.84779E-05   -0.26281E-05  7040   0.860E-03
   6 F= -.15527114E+04 E0= -.15527313E+04  d E =-.195876E-01
       N       E                     dE             d eps       ncg     rms          rms(c)
DAV:   1    -0.155271950665E+04   -0.81128E-02   -0.52031E-01 11277   0.101E+00    0.199E-01
DAV:   2    -0.155271908127E+04    0.42537E-03   -0.14923E-02 17800   0.187E-01    0.150E-01
DAV:   3    -0.155271805524E+04    0.10260E-02   -0.64191E-03 17888   0.125E-01    0.978E-02
DAV:   4    -0.155271765089E+04    0.40435E-03   -0.17394E-03 17672   0.610E-02    0.639E-02
DAV:   5    -0.155271743061E+04    0.22028E-03   -0.85642E-04 15472   0.417E-02    0.318E-02
DAV:   6    -0.155271736928E+04    0.61334E-04   -0.30922E-04 15136   0.260E-02    0.172E-02
DAV:   7    -0.155271735700E+04    0.12279E-04   -0.64068E-05 12136   0.143E-02    0.107E-02
DAV:   8    -0.155271735858E+04   -0.15803E-05   -0.18226E-05  6528   0.694E-03
   7 F= -.15527174E+04 E0= -.15527374E+04  d E =-.597318E-02
       N       E                     dE             d eps       ncg     rms          rms(c)
DAV:   1    -0.155272252380E+04   -0.51668E-02   -0.33498E-01 11256   0.792E-01    0.108E-01
DAV:   2    -0.155272275508E+04   -0.23128E-03   -0.49632E-03 16696   0.928E-02    0.873E-02
DAV:   3    -0.155272250163E+04    0.25345E-03   -0.14805E-03 17928   0.610E-02    0.590E-02
DAV:   4    -0.155272243643E+04    0.65199E-04   -0.50332E-04 15464   0.320E-02    0.349E-02
DAV:   5    -0.155272242287E+04    0.13557E-04   -0.28688E-04 14696   0.250E-02    0.141E-02
DAV:   6    -0.155272242380E+04   -0.92976E-06   -0.69878E-05 12776   0.145E-02
   8 F= -.15527224E+04 E0= -.15527423E+04  d E =-.506523E-02
       N       E                     dE             d eps       ncg     rms          rms(c)
DAV:   1    -0.155272534728E+04   -0.29244E-02   -0.26015E-01 11221   0.680E-01    0.896E-02
DAV:   2    -0.155272567572E+04   -0.32843E-03   -0.51009E-03 17696   0.106E-01    0.873E-02
DAV:   3    -0.155272528202E+04    0.39370E-03   -0.17985E-03 17770   0.676E-02    0.487E-02
DAV:   4    -0.155272520879E+04    0.73236E-04   -0.37241E-04 17048   0.274E-02    0.343E-02
DAV:   5    -0.155272515999E+04    0.48794E-04   -0.18982E-04 14960   0.196E-02    0.178E-02
DAV:   6    -0.155272514452E+04    0.15475E-04   -0.75677E-05 13128   0.143E-02    0.101E-02
DAV:   7    -0.155272513884E+04    0.56757E-05   -0.19991E-05  6992   0.900E-03
   9 F= -.15527251E+04 E0= -.15527450E+04  d E =-.271504E-02
       N       E                     dE             d eps       ncg     rms          rms(c)
DAV:   1    -0.155272651810E+04   -0.13736E-02   -0.13490E-01 11256   0.493E-01    0.572E-02
DAV:   2    -0.155272668699E+04   -0.16889E-03   -0.17928E-03 16920   0.574E-02    0.532E-02
DAV:   3    -0.155272657547E+04    0.11152E-03   -0.51763E-04 17752   0.367E-02    0.329E-02
DAV:   4    -0.155272656978E+04    0.56907E-05   -0.14040E-04 14568   0.168E-02    0.197E-02
DAV:   5    -0.155272657280E+04   -0.30238E-05   -0.76934E-05 12904   0.137E-02
  10 F= -.15527266E+04 E0= -.15527464E+04  d E =-.143396E-02
       N       E                     dE             d eps       ncg     rms          rms(c)
DAV:   1    -0.155272746104E+04   -0.89127E-03   -0.41246E-02 11326   0.280E-01    0.488E-02
DAV:   2    -0.155272741737E+04    0.43671E-04   -0.84041E-04 17496   0.437E-02    0.373E-02
DAV:   3    -0.155272735306E+04    0.64308E-04   -0.34514E-04 17896   0.301E-02    0.248E-02
DAV:   4    -0.155272731844E+04    0.34622E-04   -0.95281E-05 13888   0.146E-02    0.156E-02
DAV:   5    -0.155272729406E+04    0.24384E-04   -0.45353E-05  9456   0.109E-02    0.766E-03
DAV:   6    -0.155272728635E+04    0.77112E-05   -0.13483E-05  6432   0.750E-03
  11 F= -.15527273E+04 E0= -.15527471E+04  d E =-.713547E-03
       N       E                     dE             d eps       ncg     rms          rms(c)
DAV:   1    -0.155272804095E+04   -0.74689E-03   -0.69371E-02 11228   0.349E-01    0.351E-02
DAV:   2    -0.155272813213E+04   -0.91185E-04   -0.82784E-04 16928   0.390E-02    0.352E-02
DAV:   3    -0.155272808222E+04    0.49914E-04   -0.20807E-04 16547   0.237E-02    0.217E-02
DAV:   4    -0.155272808080E+04    0.14180E-05   -0.52258E-05 10472   0.108E-02    0.133E-02
DAV:   5    -0.155272808306E+04   -0.22592E-05   -0.25029E-05  7104   0.910E-03
  12 F= -.15527281E+04 E0= -.15527479E+04  d E =-.796712E-03
       N       E                     dE             d eps       ncg     rms          rms(c)
DAV:   1    -0.155272866199E+04   -0.58119E-03   -0.54237E-02 11270   0.309E-01    0.350E-02
DAV:   2    -0.155272869564E+04   -0.33648E-04   -0.75071E-04 17120   0.388E-02    0.324E-02
DAV:   3    -0.155272864735E+04    0.48291E-04   -0.21628E-04 16576   0.246E-02    0.200E-02
DAV:   4    -0.155272863225E+04    0.15098E-04   -0.46901E-05  9784   0.107E-02    0.136E-02
DAV:   5    -0.155272861924E+04    0.13008E-04   -0.24558E-05  6696   0.856E-03    0.627E-03
DAV:   6    -0.155272861521E+04    0.40285E-05   -0.82612E-06  6312   0.625E-03
  13 F= -.15527286E+04 E0= -.15527484E+04  d E =-.532156E-03
       N       E                     dE             d eps       ncg     rms          rms(c)
DAV:   1    -0.155272888708E+04   -0.26784E-03   -0.15701E-02 11326   0.170E-01    0.217E-02
DAV:   2    -0.155272890317E+04   -0.16091E-04   -0.16342E-04 15968   0.162E-02    0.147E-02
DAV:   3    -0.155272890318E+04   -0.11055E-07   -0.24331E-05  8080   0.953E-03    0.116E-02
DAV:   4    -0.155272890857E+04   -0.53863E-05   -0.14584E-05  6496   0.728E-03    0.509E-03
DAV:   5    -0.155272891364E+04   -0.50727E-05   -0.64485E-06  6144   0.494E-03
  14 F= -.15527289E+04 E0= -.15527487E+04  d E =-.298427E-03
       N       E                     dE             d eps       ncg     rms          rms(c)
DAV:   1    -0.155272926273E+04   -0.35416E-03   -0.26897E-02 11270   0.217E-01    0.230E-02
DAV:   2    -0.155272927423E+04   -0.11496E-04   -0.30473E-04 16968   0.244E-02    0.208E-02
DAV:   3    -0.155272925560E+04    0.18632E-04   -0.71829E-05 12673   0.150E-02    0.137E-02
DAV:   4    -0.155272924765E+04    0.79471E-05   -0.19252E-05  6536   0.777E-03    0.878E-03
DAV:   5    -0.155272924016E+04    0.74931E-05   -0.11815E-05  6216   0.658E-03
  15 F= -.15527292E+04 E0= -.15527490E+04  d E =-.326514E-03
       N       E                     dE             d eps       ncg     rms          rms(c)
DAV:   1    -0.155272955056E+04   -0.30291E-03   -0.33270E-02 11228   0.241E-01    0.217E-02
DAV:   2    -0.155272958089E+04   -0.30332E-04   -0.31375E-04 16424   0.227E-02    0.190E-02
DAV:   3    -0.155272957223E+04    0.86566E-05   -0.37320E-05  9051   0.118E-02    0.141E-02
DAV:   4    -0.155272957321E+04   -0.97644E-06   -0.22406E-05  6336   0.754E-03    0.560E-03
DAV:   5    -0.155272957545E+04   -0.22406E-05   -0.86380E-06  6208   0.618E-03
  16 F= -.15527296E+04 E0= -.15527494E+04  d E =-.335296E-03
       N       E                     dE             d eps       ncg     rms          rms(c)
DAV:   1    -0.155272977065E+04   -0.19744E-03   -0.12931E-02 11298   0.152E-01    0.184E-02
DAV:   2    -0.155272976186E+04    0.87881E-05   -0.15438E-04 15864   0.173E-02    0.141E-02
DAV:   3    -0.155272975263E+04    0.92376E-05   -0.32068E-05  8472   0.113E-02    0.990E-03
DAV:   4    -0.155272974555E+04    0.70809E-05   -0.13512E-05  6200   0.674E-03    0.617E-03
DAV:   5    -0.155272973865E+04    0.68909E-05   -0.82623E-06  6000   0.525E-03
  17 F= -.15527297E+04 E0= -.15527495E+04  d E =-.163204E-03
       N       E                     dE             d eps       ncg     rms          rms(c)
DAV:   1    -0.155272989247E+04   -0.14692E-03   -0.99619E-03 11270   0.133E-01    0.140E-02
DAV:   2    -0.155272990489E+04   -0.12420E-04   -0.90945E-05 14264   0.125E-02    0.108E-02
DAV:   3    -0.155272990401E+04    0.87590E-06   -0.12503E-05  6842   0.704E-03    0.833E-03
DAV:   4    -0.155272990919E+04   -0.51721E-05   -0.87994E-06  5960   0.489E-03    0.286E-03
DAV:   5    -0.155272991117E+04   -0.19794E-05   -0.31030E-06  5873   0.354E-03
  18 F= -.15527299E+04 E0= -.15527497E+04  d E =-.172512E-03
       N       E                     dE             d eps       ncg     rms          rms(c)
DAV:   1    -0.155273010779E+04   -0.19861E-03   -0.18906E-02 11228   0.181E-01    0.165E-02
DAV:   2    -0.155273011463E+04   -0.68396E-05   -0.17394E-04 15960   0.167E-02    0.135E-02
DAV:   3    -0.155273011000E+04    0.46313E-05   -0.16372E-05  7107   0.829E-03    0.105E-02
DAV:   4    -0.155273010505E+04    0.49510E-05   -0.11119E-05  6184   0.571E-03    0.533E-03
DAV:   5    -0.155273010222E+04    0.28255E-05   -0.59827E-06  5968   0.488E-03
  19 F= -.15527301E+04 E0= -.15527499E+04  d E =-.191058E-03
       N       E                     dE             d eps       ncg     rms          rms(c)
DAV:   1    -0.155273024285E+04   -0.13780E-03   -0.13416E-02 11256   0.153E-01    0.143E-02
DAV:   2    -0.155273025738E+04   -0.14526E-04   -0.12160E-04 15408   0.138E-02    0.113E-02
DAV:   3    -0.155273025646E+04    0.92274E-06   -0.11314E-05  6832   0.690E-03    0.882E-03
DAV:   4    -0.155273026039E+04   -0.39309E-05   -0.85311E-06  5936   0.498E-03    0.309E-03
DAV:   5    -0.155273026247E+04   -0.20818E-05   -0.31753E-06  5880   0.369E-03
  20 F= -.15527303E+04 E0= -.15527500E+04  d E =-.160243E-03
       N       E                     dE             d eps       ncg     rms          rms(c)
DAV:   1    -0.155273035400E+04   -0.93612E-04   -0.41430E-03 11284   0.862E-02    0.107E-02
DAV:   2    -0.155273034487E+04    0.91311E-05   -0.29907E-05  7936   0.913E-03    0.702E-03
DAV:   3    -0.155273034252E+04    0.23430E-05   -0.11370E-05  6354   0.684E-03    0.542E-03
DAV:   4    -0.155273033821E+04    0.43116E-05   -0.54715E-06  5880   0.447E-03    0.297E-03
DAV:   5    -0.155273033540E+04    0.28136E-05   -0.34111E-06  5880   0.322E-03
  21 F= -.15527303E+04 E0= -.15527501E+04  d E =-.729311E-04
       N       E                     dE             d eps       ncg     rms          rms(c)
DAV:   1    -0.155273044984E+04   -0.11163E-03   -0.10432E-02 11228   0.135E-01    0.123E-02
DAV:   2    -0.155273046009E+04   -0.10250E-04   -0.10059E-04 14936   0.119E-02    0.976E-03
DAV:   3    -0.155273045982E+04    0.27090E-06   -0.70056E-06  6211   0.525E-03    0.787E-03
DAV:   4    -0.155273046176E+04   -0.19406E-05   -0.62939E-06  5880   0.430E-03    0.225E-03
DAV:   5    -0.155273046257E+04   -0.81370E-06   -0.20756E-06  5873   0.306E-03
  22 F= -.15527305E+04 E0= -.15527502E+04  d E =-.127172E-03
       N       E                     dE             d eps       ncg     rms          rms(c)
DAV:   1    -0.155273055799E+04   -0.96232E-04   -0.71691E-03 11256   0.112E-01    0.102E-02
DAV:   2    -0.155273055719E+04    0.79640E-06   -0.60274E-05 11648   0.103E-02    0.795E-03
DAV:   3    -0.155273055564E+04    0.15583E-05   -0.97355E-06  6161   0.577E-03    0.619E-03
DAV:   4    -0.155273055257E+04    0.30678E-05   -0.44048E-06  5880   0.372E-03    0.317E-03
DAV:   5    -0.155273055047E+04    0.20982E-05   -0.25262E-06  5880   0.305E-03
  23 F= -.15527306E+04 E0= -.15527503E+04  d E =-.878973E-04
       N       E                     dE             d eps       ncg     rms          rms(c)
DAV:   1    -0.155273062890E+04   -0.76334E-04   -0.66209E-03 11256   0.108E-01    0.996E-03
DAV:   2    -0.155273063651E+04   -0.76077E-05   -0.55597E-05 11288   0.940E-03    0.764E-03
DAV:   3    -0.155273063728E+04   -0.76759E-06   -0.83990E-06  6081   0.518E-03    0.600E-03
DAV:   4    -0.155273064006E+04   -0.27822E-05   -0.45481E-06  5880   0.360E-03    0.205E-03
DAV:   5    -0.155273064134E+04   -0.12790E-05   -0.19418E-06  5880   0.262E-03
  24 F= -.15527306E+04 E0= -.15527504E+04  d E =-.908689E-04
       N       E                     dE             d eps       ncg     rms          rms(c)
DAV:   1    -0.155273070897E+04   -0.68912E-04   -0.41504E-03 11256   0.853E-02    0.873E-03
DAV:   2    -0.155273070438E+04    0.45943E-05   -0.26358E-05  7568   0.810E-03    0.612E-03
DAV:   3    -0.155273070321E+04    0.11639E-05   -0.96578E-06  6034   0.553E-03    0.474E-03
DAV:   4    -0.155273070027E+04    0.29387E-05   -0.52630E-06  5880   0.391E-03    0.250E-03
DAV:   5    -0.155273069858E+04    0.16948E-05   -0.31595E-06  5880   0.298E-03
  25 F= -.15527307E+04 E0= -.15527505E+04  d E =-.572412E-04
       N       E                     dE             d eps       ncg     rms          rms(c)
DAV:   1    -0.155273076218E+04   -0.61902E-04   -0.54532E-03 11242   0.973E-02    0.915E-03
DAV:   2    -0.155273076870E+04   -0.65248E-05   -0.49120E-05 10808   0.878E-03    0.706E-03
DAV:   3    -0.155273076950E+04   -0.80355E-06   -0.78842E-06  5969   0.494E-03    0.552E-03
DAV:   4    -0.155273077182E+04   -0.23158E-05   -0.43407E-06  5880   0.355E-03    0.201E-03
DAV:   5    -0.155273077294E+04   -0.11163E-05   -0.20051E-06  5873   0.259E-03
  26 F= -.15527308E+04 E0= -.15527506E+04  d E =-.743573E-04
       N       E                     dE             d eps       ncg     rms          rms(c)
DAV:   1    -0.155273082478E+04   -0.52956E-04   -0.31388E-03 11242   0.739E-02    0.708E-03
DAV:   2    -0.155273082207E+04    0.27022E-05   -0.19473E-05  6816   0.692E-03    0.516E-03
DAV:   3    -0.155273082141E+04    0.66553E-06   -0.72877E-06  5938   0.461E-03    0.398E-03
DAV:   4    -0.155273081921E+04    0.21946E-05   -0.41435E-06  5859   0.332E-03    0.195E-03
DAV:   5    -0.155273081817E+04    0.10479E-05   -0.24116E-06  5859   0.259E-03
  27 F= -.15527308E+04 E0= -.15527506E+04  d E =-.452298E-04
       N       E                     dE             d eps       ncg     rms          rms(c)
DAV:   1    -0.155273087492E+04   -0.55706E-04   -0.54954E-03 11214   0.976E-02    0.886E-03
DAV:   2    -0.155273088074E+04   -0.58205E-05   -0.46840E-05 10608   0.864E-03    0.683E-03
DAV:   3    -0.155273088166E+04   -0.91811E-06   -0.78919E-06  5939   0.481E-03    0.524E-03
DAV:   4    -0.155273088363E+04   -0.19678E-05   -0.43431E-06  5880   0.359E-03    0.173E-03
DAV:   5    -0.155273088442E+04   -0.79311E-06   -0.19979E-06  5873   0.255E-03
  28 F= -.15527309E+04 E0= -.15527507E+04  d E =-.662534E-04
       N       E                     dE             d eps       ncg     rms          rms(c)
DAV:   1    -0.155273091851E+04   -0.34887E-04   -0.15318E-03 11256   0.519E-02    0.566E-03
DAV:   2    -0.155273091494E+04    0.35705E-05   -0.10926E-05  5857   0.526E-03    0.390E-03
DAV:   3    -0.155273091409E+04    0.85091E-06   -0.43175E-06  5803   0.380E-03    0.299E-03
DAV:   4    -0.155273091217E+04    0.19258E-05   -0.23432E-06  5817   0.258E-03    0.165E-03
DAV:   5    -0.155273091092E+04    0.12471E-05   -0.14066E-06  5817   0.200E-03
  29 F= -.15527309E+04 E0= -.15527507E+04  d E =-.264994E-04
       N       E                     dE             d eps       ncg     rms          rms(c)
DAV:   1    -0.155273095436E+04   -0.42189E-04   -0.38217E-03 11214   0.813E-02    0.733E-03
DAV:   2    -0.155273095739E+04   -0.30356E-05   -0.22588E-05  7744   0.715E-03    0.551E-03
DAV:   3    -0.155273095833E+04   -0.93616E-06   -0.81880E-06  5961   0.439E-03    0.420E-03
DAV:   4    -0.155273096007E+04   -0.17417E-05   -0.53331E-06  5859   0.362E-03    0.115E-03
DAV:   5    -0.155273096049E+04   -0.42476E-06   -0.26544E-06  5852   0.263E-03
  30 F= -.15527310E+04 E0= -.15527508E+04  d E =-.495745E-04
       N       E                     dE             d eps       ncg     rms          rms(c)
DAV:   1    -0.155273101041E+04   -0.50339E-04   -0.49333E-03 11214   0.926E-02    0.880E-03
DAV:   2    -0.155273100845E+04    0.19616E-05   -0.43036E-05 10064   0.859E-03    0.645E-03
DAV:   3    -0.155273100716E+04    0.12812E-05   -0.85050E-06  5961   0.507E-03    0.479E-03
DAV:   4    -0.155273100482E+04    0.23465E-05   -0.40138E-06  5880   0.370E-03    0.258E-03
DAV:   5    -0.155273100321E+04    0.16125E-05   -0.23982E-06  5880   0.284E-03
  31 F= -.15527310E+04 E0= -.15527508E+04  d E =-.427120E-04
       N       E                     dE             d eps       ncg     rms          rms(c)
DAV:   1    -0.155273101199E+04   -0.71714E-05   -0.24948E-04 11194   0.219E-02    0.386E-03
DAV:   2    -0.155273101521E+04   -0.32180E-05   -0.32190E-06  5817   0.299E-03    0.242E-03
DAV:   3    -0.155273101594E+04   -0.72897E-06   -0.14528E-06  5817   0.255E-03    0.182E-03
DAV:   4    -0.155273101755E+04   -0.16103E-05   -0.79627E-07  5817   0.155E-03    0.909E-04
DAV:   5    -0.155273101862E+04   -0.10712E-05   -0.45992E-07  5817   0.114E-03
  32 F= -.15527310E+04 E0= -.15527508E+04  d E =-.154125E-04
       N       E                     dE             d eps       ncg     rms          rms(c)
DAV:   1    -0.155273105749E+04   -0.39947E-04   -0.36692E-03 11214   0.797E-02    0.694E-03
DAV:   2    -0.155273105789E+04   -0.39769E-06   -0.19856E-05  7280   0.678E-03    0.521E-03
DAV:   3    -0.155273105799E+04   -0.10245E-06   -0.72472E-06  5889   0.408E-03    0.380E-03
DAV:   4    -0.155273105738E+04    0.61242E-06   -0.45735E-06  5817   0.349E-03    0.966E-04
DAV:   5    -0.155273105751E+04   -0.13199E-06   -0.22813E-06  5810   0.246E-03
  33 F= -.15527311E+04 E0= -.15527508E+04  d E =-.388951E-04
       N       E                     dE             d eps       ncg     rms          rms(c)
DAV:   1    -0.155273117883E+04   -0.12145E-03   -0.92548E-02 11172   0.400E-01    0.339E-02
DAV:   2    -0.155273123264E+04   -0.53808E-04   -0.79510E-04 16640   0.333E-02    0.264E-02
DAV:   3    -0.155273122621E+04    0.64318E-05   -0.56623E-05 11136   0.122E-02    0.178E-02
DAV:   4    -0.155273121803E+04    0.81785E-05   -0.39851E-05  9248   0.120E-02    0.586E-03
DAV:   5    -0.155273121699E+04    0.10447E-05   -0.11491E-05  6376   0.695E-03
  34 F= -.15527312E+04 E0= -.15527510E+04  d E =-.159472E-03
       N       E                     dE             d eps       ncg     rms          rms(c)
DAV:   1    -0.155273114239E+04    0.75642E-04   -0.30973E-02 11172   0.232E-01    0.217E-02
DAV:   2    -0.155273114546E+04   -0.30686E-05   -0.24304E-04 16352   0.194E-02    0.165E-02
DAV:   3    -0.155273113993E+04    0.55255E-05   -0.16417E-05  7321   0.789E-03    0.132E-02
DAV:   4    -0.155273112801E+04    0.11925E-04   -0.15996E-05  6320   0.721E-03    0.422E-03
DAV:   5    -0.155273112542E+04    0.25907E-05   -0.56092E-06  5852   0.487E-03
  35 F= -.15527311E+04 E0= -.15527509E+04  d E =0.915699E-04
       N       E                     dE             d eps       ncg     rms          rms(c)
DAV:   1    -0.155273118607E+04   -0.58060E-04   -0.16327E-02 11172   0.168E-01    0.148E-02
DAV:   2    -0.155273119453E+04   -0.84644E-05   -0.12399E-04 15336   0.137E-02    0.115E-02
DAV:   3    -0.155273119371E+04    0.82403E-06   -0.76282E-06  5913   0.551E-03    0.879E-03
DAV:   4    -0.155273119288E+04    0.82674E-06   -0.89141E-06  5888   0.545E-03    0.193E-03
DAV:   5    -0.155273119283E+04    0.48177E-07   -0.19467E-06  5859   0.305E-03
  36 F= -.15527312E+04 E0= -.15527510E+04  d E =-.674166E-04
       N       E                     dE             d eps       ncg     rms          rms(c)
DAV:   1    -0.155273124576E+04   -0.52878E-04   -0.27132E-02 11172   0.217E-01    0.181E-02
DAV:   2    -0.155273125958E+04   -0.13820E-04   -0.23288E-04 16456   0.181E-02    0.141E-02
DAV:   3    -0.155273125648E+04    0.30956E-05   -0.11687E-05  6912   0.664E-03    0.989E-03
DAV:   4    -0.155273125274E+04    0.37447E-05   -0.10165E-05  6416   0.672E-03    0.340E-03
DAV:   5    -0.155273125204E+04    0.69718E-06   -0.37471E-06  5880   0.434E-03
  37 F= -.15527313E+04 E0= -.15527510E+04  d E =-.592089E-04
       N       E                     dE             d eps       ncg     rms          rms(c)
DAV:   1    -0.155273123631E+04    0.16427E-04   -0.11249E-03 11214   0.466E-02    0.823E-03
DAV:   2    -0.155273124124E+04   -0.49293E-05   -0.92715E-06  5817   0.552E-03    0.502E-03
DAV:   3    -0.155273124251E+04   -0.12675E-05   -0.37431E-06  5810   0.451E-03    0.397E-03
DAV:   4    -0.155273124506E+04   -0.25523E-05   -0.18785E-06  5796   0.268E-03    0.192E-03
DAV:   5    -0.155273124721E+04   -0.21476E-05   -0.10439E-06  5796   0.167E-03
  38 F= -.15527312E+04 E0= -.15527510E+04  d E =0.483259E-05
       N       E                     dE             d eps       ncg     rms          rms(c)
DAV:   1    -0.155273127348E+04   -0.28416E-04   -0.26779E-03 11214   0.688E-02    0.731E-03
DAV:   2    -0.155273126842E+04    0.50529E-05   -0.14586E-05  5844   0.625E-03    0.483E-03
DAV:   3    -0.155273126695E+04    0.14732E-05   -0.50514E-06  5789   0.415E-03    0.373E-03
DAV:   4    -0.155273126444E+04    0.25149E-05   -0.26007E-06  5775   0.299E-03    0.197E-03
DAV:   5    -0.155273126284E+04    0.15940E-05   -0.15832E-06  5775   0.213E-03
  39 F= -.15527313E+04 E0= -.15527511E+04  d E =-.156329E-04
       N       E                     dE             d eps       ncg     rms          rms(c)
DAV:   1    -0.155273127089E+04   -0.64536E-05   -0.93343E-04 11214   0.401E-02    0.365E-03
DAV:   2    -0.155273127167E+04   -0.78304E-06   -0.63513E-06  5802   0.389E-03    0.298E-03
DAV:   3    -0.155273127177E+04   -0.93932E-07   -0.24986E-06  5747   0.258E-03    0.226E-03
DAV:   4    -0.155273127215E+04   -0.38878E-06   -0.16690E-06  5754   0.192E-03    0.789E-04
DAV:   5    -0.155273127230E+04   -0.14580E-06   -0.84911E-07  5754   0.157E-03
  40 F= -.15527313E+04 E0= -.15527511E+04  d E =-.945914E-05
       N       E                     dE             d eps       ncg     rms          rms(c)
DAV:   1    -0.155273128603E+04   -0.13874E-04   -0.24886E-03 11200   0.658E-02    0.615E-03
DAV:   2    -0.155273128367E+04    0.23551E-05   -0.15165E-05  7256   0.601E-03    0.437E-03
DAV:   3    -0.155273128296E+04    0.70906E-06   -0.58071E-06  5929   0.386E-03    0.325E-03
DAV:   4    -0.155273128141E+04    0.15521E-05   -0.31964E-06  5859   0.300E-03    0.166E-03
DAV:   5    -0.155273128059E+04    0.82629E-06   -0.19599E-06  5852   0.227E-03
  41 F= -.15527313E+04 E0= -.15527511E+04  d E =-.828550E-05
       N       E                     dE             d eps       ncg     rms          rms(c)
DAV:   1    -0.155273127668E+04    0.47323E-05   -0.20696E-04 11006   0.199E-02    0.321E-03
DAV:   2    -0.155273127910E+04   -0.24235E-05   -0.15154E-06  5712   0.229E-03    0.196E-03
DAV:   3    -0.155273127973E+04   -0.63026E-06   -0.55896E-07  5691   0.179E-03    0.151E-03
DAV:   4    -0.155273128076E+04   -0.10282E-05   -0.25764E-07  5712   0.107E-03    0.809E-04
DAV:   5    -0.155273128168E+04   -0.91500E-06   -0.14526E-07  5712   0.659E-04
  42 F= -.15527313E+04 E0= -.15527511E+04  d E =-.109105E-05
       N       E                     dE             d eps       ncg     rms          rms(c)
DAV:   1    -0.155273128791E+04   -0.71475E-05   -0.69489E-04 11214   0.347E-02    0.286E-03
DAV:   2    -0.155273128817E+04   -0.26126E-06   -0.35754E-06  5712   0.295E-03    0.223E-03
DAV:   3    -0.155273128821E+04   -0.36690E-07   -0.12104E-06  5705   0.172E-03    0.174E-03
DAV:   4    -0.155273128823E+04   -0.26135E-07   -0.84027E-07  5712   0.139E-03    0.458E-04
DAV:   5    -0.155273128826E+04   -0.25325E-07   -0.38791E-07  5712   0.102E-03
  43 F= -.15527313E+04 E0= -.15527511E+04  d E =-.658192E-05
       N       E                     dE             d eps       ncg     rms          rms(c)
DAV:   1    -0.155273130711E+04   -0.18878E-04   -0.10125E-02 11172   0.132E-01    0.117E-02
DAV:   2    -0.155273130862E+04   -0.15052E-05   -0.87931E-05 14464   0.113E-02    0.894E-03
DAV:   3    -0.155273130662E+04    0.19924E-05   -0.65989E-06  6072   0.481E-03    0.676E-03
DAV:   4    -0.155273130338E+04    0.32474E-05   -0.42330E-06  5880   0.409E-03    0.294E-03
DAV:   5    -0.155273130186E+04    0.15139E-05   -0.21212E-06  5880   0.289E-03
  44 F= -.15527313E+04 E0= -.15527511E+04  d E =-.136045E-04
       N       E                     dE             d eps       ncg     rms          rms(c)
DAV:   1    -0.155273129070E+04    0.12680E-04   -0.34731E-03 11172   0.779E-02    0.774E-03
DAV:   2    -0.155273129390E+04   -0.31992E-05   -0.17239E-05  6298   0.660E-03    0.549E-03
DAV:   3    -0.155273129486E+04   -0.96419E-06   -0.57701E-06  5733   0.402E-03    0.430E-03
DAV:   4    -0.155273129668E+04   -0.18159E-05   -0.35726E-06  5754   0.313E-03    0.148E-03
DAV:   5    -0.155273129754E+04   -0.85858E-06   -0.17902E-06  5754   0.208E-03
  45 F= -.15527313E+04 E0= -.15527511E+04  d E =0.432798E-05
       N       E                     dE             d eps       ncg     rms          rms(c)
DAV:   1    -0.155273130417E+04   -0.74909E-05   -0.12383E-03 11200   0.465E-02    0.391E-03
DAV:   2    -0.155273130437E+04   -0.19704E-06   -0.51177E-06  5670   0.368E-03    0.296E-03
DAV:   3    -0.155273130434E+04    0.20575E-07   -0.13913E-06  5663   0.199E-03    0.232E-03
DAV:   4    -0.155273130425E+04    0.91039E-07   -0.10324E-06  5670   0.167E-03    0.636E-04
DAV:   5    -0.155273130427E+04   -0.14065E-07   -0.40902E-07  5670   0.112E-03
  46 F= -.15527313E+04 E0= -.15527511E+04  d E =-.673180E-05
       N       E                     dE             d eps       ncg     rms          rms(c)
DAV:   1    -0.155273131350E+04   -0.92474E-05   -0.25480E-03 11172   0.666E-02    0.632E-03
DAV:   2    -0.155273131062E+04    0.28846E-05   -0.14675E-05  6338   0.589E-03    0.438E-03
DAV:   3    -0.155273130949E+04    0.11218E-05   -0.54489E-06  5747   0.374E-03    0.311E-03
DAV:   4    -0.155273130780E+04    0.16959E-05   -0.29007E-06  5754   0.299E-03    0.144E-03
DAV:   5    -0.155273130701E+04    0.79327E-06   -0.17340E-06  5754   0.212E-03
  47 F= -.15527313E+04 E0= -.15527511E+04  d E =-.273777E-05
       N       E                     dE             d eps       ncg     rms          rms(c)
DAV:   1    -0.155273130305E+04    0.47536E-05   -0.55297E-04 11214   0.316E-02    0.384E-03
DAV:   2    -0.155273130543E+04   -0.23885E-05   -0.27557E-06  5649   0.288E-03    0.244E-03
DAV:   3    -0.155273130612E+04   -0.68383E-06   -0.87738E-07  5649   0.197E-03    0.195E-03
DAV:   4    -0.155273130723E+04   -0.11101E-05   -0.40944E-07  5649   0.124E-03    0.958E-04
DAV:   5    -0.155273130817E+04   -0.94574E-06   -0.23693E-07  5649   0.764E-04
  48 F= -.15527313E+04 E0= -.15527511E+04  d E =-.116777E-05
       N       E                     dE             d eps       ncg     rms          rms(c)
DAV:   1    -0.155273131107E+04   -0.38458E-05   -0.35532E-04 11142   0.248E-02    0.201E-03
DAV:   2    -0.155273131120E+04   -0.12347E-06   -0.16711E-06  5649   0.204E-03    0.152E-03
DAV:   3    -0.155273131122E+04   -0.23914E-07   -0.52734E-07  5649   0.112E-03    0.117E-03
DAV:   4    -0.155273131123E+04   -0.13270E-07   -0.35946E-07  5649   0.958E-04    0.270E-04
DAV:   5    -0.155273131124E+04   -0.52082E-08   -0.15857E-07  5649   0.645E-04
  49 F= -.15527313E+04 E0= -.15527511E+04  d E =-.306593E-05
       N       E                     dE             d eps       ncg     rms          rms(c)
DAV:   1    -0.155273131869E+04   -0.74526E-05   -0.28406E-03 11172   0.702E-02    0.631E-03
DAV:   2    -0.155273131687E+04    0.18126E-05   -0.15433E-05  6607   0.600E-03    0.450E-03
DAV:   3    -0.155273131574E+04    0.11384E-05   -0.57306E-06  5754   0.361E-03    0.274E-03
DAV:   4    -0.155273131461E+04    0.11263E-05   -0.30605E-06  5712   0.303E-03    0.123E-03
DAV:   5    -0.155273131428E+04    0.32573E-06   -0.17467E-06  5712   0.217E-03
  50 F= -.15527313E+04 E0= -.15527511E+04  d E =-.304426E-05
