       N       E                     dE             d eps       ncg     rms          rms(c)
DAV:   1     0.237602356121E+04    0.23760E+04   -0.29920E+05 11928   0.144E+03
DAV:   2    -0.120069200982E+04   -0.35767E+04   -0.34298E+04 13812   0.314E+02
DAV:   3    -0.165577592889E+04   -0.45508E+03   -0.42515E+03 18336   0.818E+01
DAV:   4    -0.168047393423E+04   -0.24698E+02   -0.23370E+02 16752   0.177E+01
DAV:   5    -0.168150192278E+04   -0.10280E+01   -0.10116E+01 18512   0.399E+00    0.426E+01
DAV:   6    -0.163317358242E+04    0.48328E+02   -0.12464E+02 18032   0.149E+01    0.231E+01
DAV:   7    -0.162111167630E+04    0.12062E+02   -0.87581E+01 17712   0.152E+01    0.162E+01
DAV:   8    -0.161053717307E+04    0.10575E+02   -0.51031E+01 17496   0.125E+01    0.764E+00
DAV:   9    -0.160741386637E+04    0.31233E+01   -0.19153E+01 17112   0.714E+00    0.239E+00
DAV:  10    -0.160747561812E+04   -0.61752E-01   -0.34333E+00 16920   0.257E+00    0.157E+00
DAV:  11    -0.160744302896E+04    0.32589E-01   -0.36070E-01 15440   0.893E-01    0.968E-01
DAV:  12    -0.160742804157E+04    0.14987E-01   -0.15366E-01 14952   0.658E-01    0.532E-01
DAV:  13    -0.160741811896E+04    0.99226E-02   -0.42442E-02 15424   0.399E-01    0.299E-01
DAV:  14    -0.160741487537E+04    0.32436E-02   -0.14396E-02 14696   0.170E-01    0.109E-01
DAV:  15    -0.160741466559E+04    0.20978E-03   -0.38274E-03 15704   0.978E-02    0.546E-02
DAV:  16    -0.160741460911E+04    0.56484E-04   -0.10455E-03 15144   0.564E-02    0.348E-02
DAV:  17    -0.160741457448E+04    0.34629E-04   -0.28930E-04 15008   0.261E-02    0.161E-02
DAV:  18    -0.160741455934E+04    0.15141E-04   -0.70138E-05 12376   0.146E-02    0.943E-03
DAV:  19    -0.160741455262E+04    0.67157E-05   -0.19824E-05  8016   0.839E-03
   1 F= -.16074146E+04 E0= -.16073936E+04  d E =-.160741E+04
       N       E                     dE             d eps       ncg     rms          rms(c)
DAV:   1    -0.160989621503E+04   -0.24817E+01   -0.87076E+02 11928   0.433E+01    0.150E+01
DAV:   2    -0.160017511614E+04    0.97211E+01   -0.40735E+01 17392   0.833E+00    0.747E+00
DAV:   3    -0.159804214440E+04    0.21330E+01   -0.18190E+01 18648   0.592E+00    0.517E+00
DAV:   4    -0.159698622913E+04    0.10559E+01   -0.60480E+00 19216   0.426E+00    0.336E+00
DAV:   5    -0.159636658481E+04    0.61964E+00   -0.36051E+00 17488   0.289E+00    0.107E+00
DAV:   6    -0.159634861530E+04    0.17970E-01   -0.68575E-01 15784   0.126E+00    0.688E-01
DAV:   7    -0.159634473808E+04    0.38772E-02   -0.12715E-01 15944   0.561E-01    0.477E-01
DAV:   8    -0.159634405971E+04    0.67837E-03   -0.42458E-02 16888   0.265E-01    0.239E-01
DAV:   9    -0.159634658399E+04   -0.25243E-02   -0.19015E-02 16472   0.167E-01    0.150E-01
DAV:  10    -0.159634619930E+04    0.38469E-03   -0.45570E-03 17136   0.112E-01    0.914E-02
DAV:  11    -0.159634594910E+04    0.25020E-03   -0.19885E-03 17560   0.642E-02    0.462E-02
DAV:  12    -0.159634602337E+04   -0.74271E-04   -0.11273E-03 17496   0.429E-02    0.323E-02
DAV:  13    -0.159634604521E+04   -0.21840E-04   -0.19897E-04 15832   0.197E-02    0.158E-02
DAV:  14    -0.159634604601E+04   -0.79981E-06   -0.47238E-05 10768   0.116E-02
   2 F= -.15963460E+04 E0= -.15963595E+04  d E =0.110685E+02
       N       E                     dE             d eps       ncg     rms          rms(c)
DAV:   1    -0.161745861722E+04   -0.21113E+02   -0.36063E+02 11928   0.311E+01    0.107E+01
DAV:   2    -0.161208532070E+04    0.53733E+01   -0.11502E+01 14870   0.512E+00    0.488E+00
DAV:   3    -0.161109603975E+04    0.98928E+00   -0.45164E+00 15592   0.321E+00    0.303E+00
DAV:   4    -0.161065808201E+04    0.43796E+00   -0.20558E+00 17176   0.282E+00    0.160E+00
DAV:   5    -0.161050605173E+04    0.15203E+00   -0.98702E-01 16392   0.171E+00    0.479E-01
DAV:   6    -0.161051012152E+04   -0.40698E-02   -0.18008E-01 14920   0.671E-01    0.334E-01
DAV:   7    -0.161051226351E+04   -0.21420E-02   -0.28488E-02 16088   0.260E-01    0.223E-01
DAV:   8    -0.161051425902E+04   -0.19955E-02   -0.91224E-03 15704   0.135E-01    0.110E-01
DAV:   9    -0.161051595860E+04   -0.16996E-02   -0.37339E-03 13760   0.854E-02    0.607E-02
DAV:  10    -0.161051618853E+04   -0.22993E-03   -0.10481E-03 14760   0.484E-02    0.316E-02
DAV:  11    -0.161051630541E+04   -0.11688E-03   -0.37989E-04 16352   0.307E-02    0.218E-02
DAV:  12    -0.161051640840E+04   -0.10298E-03   -0.16521E-04 14216   0.192E-02    0.154E-02
DAV:  13    -0.161051641475E+04   -0.63534E-05   -0.29935E-05  8320   0.867E-03
   3 F= -.16105164E+04 E0= -.16105079E+04  d E =-.141704E+02
       N       E                     dE             d eps       ncg     rms          rms(c)
DAV:   1    -0.161056364299E+04   -0.47235E-01   -0.79901E+00 11928   0.362E+00    0.458E-01
DAV:   2    -0.161057134927E+04   -0.77063E-02   -0.14673E-01 17832   0.563E-01    0.337E-01
DAV:   3    -0.161056702911E+04    0.43202E-02   -0.32409E-02 18376   0.318E-01    0.233E-01
DAV:   4    -0.161056591328E+04    0.11158E-02   -0.67999E-03 18520   0.130E-01    0.148E-01
DAV:   5    -0.161056535058E+04    0.56270E-03   -0.38668E-03 16360   0.961E-02    0.502E-02
DAV:   6    -0.161056529201E+04    0.58571E-04   -0.10552E-03 16344   0.568E-02    0.297E-02
DAV:   7    -0.161056526470E+04    0.27309E-04   -0.25419E-04 16192   0.271E-02    0.180E-02
DAV:   8    -0.161056525943E+04    0.52665E-05   -0.55844E-05 11296   0.113E-02
   4 F= -.16105653E+04 E0= -.16105578E+04  d E =-.488447E-01
       N       E                     dE             d eps       ncg     rms          rms(c)
DAV:   1    -0.161057463435E+04   -0.93697E-02   -0.16563E+00 11956   0.165E+00    0.185E-01
DAV:   2    -0.161057651183E+04   -0.18775E-02   -0.25302E-02 17352   0.272E-01    0.163E-01
DAV:   3    -0.161057501221E+04    0.14996E-02   -0.74214E-03 18072   0.155E-01    0.998E-02
DAV:   4    -0.161057481692E+04    0.19528E-03   -0.12941E-03 17512   0.545E-02    0.624E-02
DAV:   5    -0.161057472865E+04    0.88277E-04   -0.77391E-04 15712   0.446E-02    0.230E-02
DAV:   6    -0.161057471001E+04    0.18642E-04   -0.22324E-04 16032   0.271E-02    0.139E-02
DAV:   7    -0.161057470188E+04    0.81267E-05   -0.35663E-05  9128   0.109E-02
   5 F= -.16105747E+04 E0= -.16105677E+04  d E =-.944245E-02
       N       E                     dE             d eps       ncg     rms          rms(c)
DAV:   1    -0.161057712512E+04   -0.24151E-02   -0.58253E-01 11948   0.977E-01    0.109E-01
DAV:   2    -0.161057778727E+04   -0.66215E-03   -0.83034E-03 17304   0.162E-01    0.101E-01
DAV:   3    -0.161057717782E+04    0.60945E-03   -0.27127E-03 18078   0.947E-02    0.594E-02
DAV:   4    -0.161057709255E+04    0.85270E-04   -0.46838E-04 17072   0.326E-02    0.331E-02
DAV:   5    -0.161057705587E+04    0.36678E-04   -0.24479E-04 15976   0.258E-02    0.126E-02
DAV:   6    -0.161057704845E+04    0.74195E-05   -0.65427E-05 13760   0.155E-02
   6 F= -.16105770E+04 E0= -.16105703E+04  d E =-.234657E-02
       N       E                     dE             d eps       ncg     rms          rms(c)
DAV:   1    -0.161057746239E+04   -0.40652E-03   -0.43980E-02 12110   0.275E-01    0.436E-02
DAV:   2    -0.161057746469E+04   -0.22978E-05   -0.51259E-04 16816   0.347E-02    0.265E-02
DAV:   3    -0.161057745738E+04    0.73101E-05   -0.15346E-04 17062   0.221E-02    0.200E-02
DAV:   4    -0.161057745661E+04    0.77558E-06   -0.48316E-05 10600   0.124E-02    0.883E-03
DAV:   5    -0.161057746431E+04   -0.77082E-05   -0.19054E-05  7152   0.797E-03
   7 F= -.16105775E+04 E0= -.16105706E+04  d E =-.415864E-03
       N       E                     dE             d eps       ncg     rms          rms(c)
DAV:   1    -0.161057775319E+04   -0.29658E-03   -0.14610E-02 12108   0.159E-01    0.274E-02
DAV:   2    -0.161057771820E+04    0.34995E-04   -0.18382E-04 17344   0.190E-02    0.159E-02
DAV:   3    -0.161057770524E+04    0.12957E-04   -0.38966E-05 10102   0.121E-02    0.115E-02
DAV:   4    -0.161057769120E+04    0.14037E-04   -0.15163E-05  7936   0.907E-03    0.553E-03
DAV:   5    -0.161057768362E+04    0.75817E-05   -0.81795E-06  6528   0.531E-03
   8 F= -.16105777E+04 E0= -.16105709E+04  d E =-.219306E-03
       N       E                     dE             d eps       ncg     rms          rms(c)
DAV:   1    -0.161057792732E+04   -0.23611E-03   -0.27253E-02 12044   0.211E-01    0.215E-02
DAV:   2    -0.161057794691E+04   -0.19595E-04   -0.24275E-04 17544   0.221E-02    0.168E-02
DAV:   3    -0.161057794171E+04    0.52012E-05   -0.25501E-05  8856   0.110E-02    0.131E-02
DAV:   4    -0.161057794274E+04   -0.10265E-05   -0.23681E-05  6848   0.766E-03    0.297E-03
DAV:   5    -0.161057794298E+04   -0.24269E-06   -0.56589E-06  6512   0.549E-03
   9 F= -.16105779E+04 E0= -.16105711E+04  d E =-.259357E-03
       N       E                     dE             d eps       ncg     rms          rms(c)
DAV:   1    -0.161057817984E+04   -0.23710E-03   -0.33752E-02 12016   0.236E-01    0.265E-02
DAV:   2    -0.161057817709E+04    0.27488E-05   -0.31674E-04 17448   0.252E-02    0.191E-02
DAV:   3    -0.161057816610E+04    0.10991E-04   -0.49173E-05 11202   0.137E-02    0.145E-02
DAV:   4    -0.161057815188E+04    0.14217E-04   -0.19572E-05  7312   0.822E-03    0.578E-03
DAV:   5    -0.161057814704E+04    0.48344E-05   -0.81858E-06  6504   0.583E-03
  10 F= -.16105781E+04 E0= -.16105713E+04  d E =-.204067E-03
       N       E                     dE             d eps       ncg     rms          rms(c)
DAV:   1    -0.161057818002E+04   -0.28143E-04   -0.92621E-04 12112   0.478E-02    0.159E-02
DAV:   2    -0.161057818251E+04   -0.24827E-05   -0.19671E-05  6320   0.736E-03    0.741E-03
DAV:   3    -0.161057818843E+04   -0.59247E-05   -0.92884E-06  6264   0.599E-03    0.429E-03
DAV:   4    -0.161057819167E+04   -0.32369E-05   -0.42894E-06  6264   0.486E-03    0.182E-03
DAV:   5    -0.161057819438E+04   -0.27111E-05   -0.18886E-06  6264   0.261E-03
  11 F= -.16105782E+04 E0= -.16105713E+04  d E =-.473330E-04
       N       E                     dE             d eps       ncg     rms          rms(c)
DAV:   1    -0.161057833827E+04   -0.14661E-03   -0.15199E-02 11984   0.157E-01    0.159E-02
DAV:   2    -0.161057834114E+04   -0.28645E-05   -0.12778E-04 16424   0.149E-02    0.119E-02
DAV:   3    -0.161057833774E+04    0.34000E-05   -0.10221E-05  7394   0.640E-03    0.867E-03
DAV:   4    -0.161057833268E+04    0.50572E-05   -0.81107E-06  6456   0.560E-03    0.221E-03
DAV:   5    -0.161057833204E+04    0.64382E-06   -0.26266E-06  6258   0.369E-03
  12 F= -.16105783E+04 E0= -.16105715E+04  d E =-.137657E-03
       N       E                     dE             d eps       ncg     rms          rms(c)
DAV:   1    -0.161057847044E+04   -0.13776E-03   -0.23680E-02 11980   0.196E-01    0.193E-02
DAV:   2    -0.161057848714E+04   -0.16703E-04   -0.19930E-04 17312   0.182E-02    0.145E-02
DAV:   3    -0.161057848639E+04    0.75500E-06   -0.12793E-05  7878   0.720E-03    0.928E-03
DAV:   4    -0.161057848809E+04   -0.16987E-05   -0.10841E-05  6880   0.697E-03    0.200E-03
DAV:   5    -0.161057848818E+04   -0.99306E-07   -0.28470E-06  6256   0.401E-03
  13 F= -.16105785E+04 E0= -.16105716E+04  d E =-.156149E-03
       N       E                     dE             d eps       ncg     rms          rms(c)
DAV:   1    -0.161057850974E+04   -0.21651E-04   -0.40392E-04 12112   0.320E-02    0.109E-02
DAV:   2    -0.161057849412E+04    0.15616E-04   -0.95109E-06  6240   0.524E-03    0.499E-03
DAV:   3    -0.161057848813E+04    0.59923E-05   -0.44326E-06  6240   0.450E-03    0.295E-03
DAV:   4    -0.161057848459E+04    0.35413E-05   -0.20010E-06  6240   0.358E-03    0.123E-03
DAV:   5    -0.161057848251E+04    0.20740E-05   -0.95965E-07  6240   0.182E-03
  14 F= -.16105785E+04 E0= -.16105717E+04  d E =0.567167E-05
       N       E                     dE             d eps       ncg     rms          rms(c)
DAV:   1    -0.161057856292E+04   -0.78331E-04   -0.89306E-03 11972   0.121E-01    0.125E-02
DAV:   2    -0.161057856995E+04   -0.70292E-05   -0.69625E-05 13912   0.112E-02    0.911E-03
DAV:   3    -0.161057857114E+04   -0.11880E-05   -0.91712E-06  6516   0.520E-03    0.483E-03
DAV:   4    -0.161057857302E+04   -0.18898E-05   -0.41537E-06  6240   0.453E-03    0.160E-03
DAV:   5    -0.161057857332E+04   -0.29811E-06   -0.15937E-06  6212   0.288E-03
  15 F= -.16105786E+04 E0= -.16105717E+04  d E =-.908102E-04
       N       E                     dE             d eps       ncg     rms          rms(c)
DAV:   1    -0.161057864933E+04   -0.76309E-04   -0.98254E-03 11976   0.126E-01    0.126E-02
DAV:   2    -0.161057865085E+04   -0.15201E-05   -0.82715E-05 14816   0.117E-02    0.942E-03
DAV:   3    -0.161057864787E+04    0.29821E-05   -0.84642E-06  6688   0.518E-03    0.565E-03
DAV:   4    -0.161057864503E+04    0.28422E-05   -0.46745E-06  6240   0.463E-03    0.158E-03
DAV:   5    -0.161057864478E+04    0.25255E-06   -0.16102E-06  6240   0.299E-03
  16 F= -.16105786E+04 E0= -.16105718E+04  d E =-.714539E-04
       N       E                     dE             d eps       ncg     rms          rms(c)
DAV:   1    -0.161057866357E+04   -0.18542E-04   -0.12298E-03 12024   0.465E-02    0.822E-03
DAV:   2    -0.161057866803E+04   -0.44615E-05   -0.10541E-05  6240   0.510E-03    0.438E-03
DAV:   3    -0.161057867158E+04   -0.35497E-05   -0.42726E-06  6228   0.334E-03    0.218E-03
DAV:   4    -0.161057867360E+04   -0.20122E-05   -0.19565E-06  6240   0.268E-03    0.121E-03
DAV:   5    -0.161057867473E+04   -0.11306E-05   -0.10268E-06  6240   0.194E-03
  17 F= -.16105787E+04 E0= -.16105718E+04  d E =-.299490E-04
       N       E                     dE             d eps       ncg     rms          rms(c)
DAV:   1    -0.161057872103E+04   -0.47432E-04   -0.33019E-03 11976   0.737E-02    0.887E-03
DAV:   2    -0.161057871585E+04    0.51821E-05   -0.20668E-05  8128   0.726E-03    0.573E-03
DAV:   3    -0.161057871269E+04    0.31559E-05   -0.75247E-06  6336   0.430E-03    0.292E-03
DAV:   4    -0.161057871081E+04    0.18826E-05   -0.37668E-06  6192   0.356E-03    0.139E-03
DAV:   5    -0.161057871032E+04    0.48450E-06   -0.20857E-06  6190   0.272E-03
  18 F= -.16105787E+04 E0= -.16105719E+04  d E =-.355960E-04
       N       E                     dE             d eps       ncg     rms          rms(c)
DAV:   1    -0.161057874554E+04   -0.34731E-04   -0.38525E-03 11972   0.791E-02    0.814E-03
DAV:   2    -0.161057874873E+04   -0.31880E-05   -0.24854E-05  7928   0.767E-03    0.584E-03
DAV:   3    -0.161057875044E+04   -0.17168E-05   -0.86126E-06  6254   0.441E-03    0.200E-03
DAV:   4    -0.161057875161E+04   -0.11638E-05   -0.42073E-06  6192   0.361E-03    0.948E-04
DAV:   5    -0.161057875168E+04   -0.72671E-07   -0.22657E-06  6192   0.274E-03
  19 F= -.16105788E+04 E0= -.16105719E+04  d E =-.413570E-04
       N       E                     dE             d eps       ncg     rms          rms(c)
DAV:   1    -0.161057877854E+04   -0.26933E-04   -0.16779E-03 11976   0.527E-02    0.689E-03
DAV:   2    -0.161057877385E+04    0.46886E-05   -0.12613E-05  6264   0.569E-03    0.426E-03
DAV:   3    -0.161057877140E+04    0.24474E-05   -0.49525E-06  6114   0.366E-03    0.231E-03
DAV:   4    -0.161057876978E+04    0.16221E-05   -0.25502E-06  6120   0.299E-03    0.117E-03
DAV:   5    -0.161057876918E+04    0.60398E-06   -0.14737E-06  6120   0.225E-03
  20 F= -.16105788E+04 E0= -.16105719E+04  d E =-.174987E-04
       N       E                     dE             d eps       ncg     rms          rms(c)
DAV:   1    -0.161057878639E+04   -0.16608E-04   -0.12190E-03 11976   0.448E-02    0.548E-03
DAV:   2    -0.161057878918E+04   -0.27919E-05   -0.84771E-06  6306   0.462E-03    0.358E-03
DAV:   3    -0.161057879108E+04   -0.19018E-05   -0.34424E-06  6112   0.290E-03    0.170E-03
DAV:   4    -0.161057879227E+04   -0.11910E-05   -0.17958E-06  6114   0.239E-03    0.843E-04
DAV:   5    -0.161057879266E+04   -0.38519E-06   -0.10101E-06  6114   0.182E-03
  21 F= -.16105788E+04 E0= -.16105720E+04  d E =-.234821E-04
       N       E                     dE             d eps       ncg     rms          rms(c)
DAV:   1    -0.161057881882E+04   -0.26543E-04   -0.26193E-03 11972   0.652E-02    0.654E-03
DAV:   2    -0.161057881811E+04    0.70227E-06   -0.15431E-05  7744   0.628E-03    0.472E-03
DAV:   3    -0.161057881688E+04    0.12375E-05   -0.58888E-06  6254   0.363E-03    0.166E-03
DAV:   4    -0.161057881653E+04    0.34623E-06   -0.29831E-06  6144   0.294E-03    0.771E-04
DAV:   5    -0.161057881669E+04   -0.15852E-06   -0.16451E-06  6144   0.230E-03
  22 F= -.16105788E+04 E0= -.16105720E+04  d E =-.240300E-04
       N       E                     dE             d eps       ncg     rms          rms(c)
DAV:   1    -0.161057883627E+04   -0.19739E-04   -0.30843E-03 11956   0.711E-02    0.810E-03
DAV:   2    -0.161057884035E+04   -0.40801E-05   -0.20287E-05  7312   0.709E-03    0.539E-03
DAV:   3    -0.161057884300E+04   -0.26518E-05   -0.73958E-06  6232   0.415E-03    0.235E-03
DAV:   4    -0.161057884478E+04   -0.17824E-05   -0.37203E-06  6090   0.341E-03    0.119E-03
DAV:   5    -0.161057884519E+04   -0.40925E-06   -0.20498E-06  6082   0.267E-03
  23 F= -.16105788E+04 E0= -.16105720E+04  d E =-.285036E-04
       N       E                     dE             d eps       ncg     rms          rms(c)
DAV:   1    -0.161057885443E+04   -0.96497E-05   -0.95020E-05 11736   0.148E-02    0.483E-03
DAV:   2    -0.161057884925E+04    0.51882E-05   -0.27818E-06  6048   0.261E-03    0.216E-03
DAV:   3    -0.161057884686E+04    0.23834E-05   -0.12224E-06  6048   0.202E-03    0.121E-03
DAV:   4    -0.161057884561E+04    0.12541E-05   -0.55619E-07  6048   0.148E-03    0.610E-04
DAV:   5    -0.161057884479E+04    0.81432E-06   -0.30276E-07  6048   0.101E-03
  24 F= -.16105788E+04 E0= -.16105720E+04  d E =0.399576E-06
       N       E                     dE             d eps       ncg     rms          rms(c)
DAV:   1    -0.161057886165E+04   -0.16039E-04   -0.18416E-03 11952   0.547E-02    0.529E-03
DAV:   2    -0.161057886230E+04   -0.65022E-06   -0.10016E-05  6144   0.508E-03    0.388E-03
DAV:   3    -0.161057886243E+04   -0.13651E-06   -0.38677E-06  6036   0.292E-03    0.107E-03
DAV:   4    -0.161057886267E+04   -0.23477E-06   -0.18315E-06  6048   0.235E-03    0.660E-04
DAV:   5    -0.161057886271E+04   -0.41073E-07   -0.99455E-07  6036   0.175E-03
  25 F= -.16105789E+04 E0= -.16105720E+04  d E =-.179160E-04
       N       E                     dE             d eps       ncg     rms          rms(c)
DAV:   1    -0.161057891360E+04   -0.50932E-04   -0.36333E-02 11932   0.243E-01    0.232E-02
DAV:   2    -0.161057892943E+04   -0.15833E-04   -0.30429E-04 17536   0.223E-02    0.178E-02
DAV:   3    -0.161057891971E+04    0.97220E-05   -0.21979E-05  7946   0.778E-03    0.729E-03
DAV:   4    -0.161057891743E+04    0.22809E-05   -0.10619E-05  7184   0.718E-03    0.295E-03
DAV:   5    -0.161057891720E+04    0.23443E-06   -0.28967E-06  6394   0.450E-03
  26 F= -.16105789E+04 E0= -.16105721E+04  d E =-.544865E-04
       N       E                     dE             d eps       ncg     rms          rms(c)
DAV:   1    -0.161057888576E+04    0.31669E-04   -0.10825E-02 11936   0.133E-01    0.146E-02
DAV:   2    -0.161057889269E+04   -0.69284E-05   -0.77890E-05 13912   0.121E-02    0.102E-02
DAV:   3    -0.161057889378E+04   -0.10932E-05   -0.10599E-05  6142   0.532E-03    0.523E-03
DAV:   4    -0.161057889630E+04   -0.25199E-05   -0.46144E-06  6138   0.461E-03    0.193E-03
DAV:   5    -0.161057889661E+04   -0.30968E-06   -0.18334E-06  6108   0.336E-03
  27 F= -.16105789E+04 E0= -.16105720E+04  d E =0.205834E-04
       N       E                     dE             d eps       ncg     rms          rms(c)
DAV:   1    -0.161057892485E+04   -0.28544E-04   -0.77878E-03 11936   0.113E-01    0.111E-02
DAV:   2    -0.161057892383E+04    0.10206E-05   -0.48327E-05 10976   0.101E-02    0.821E-03
DAV:   3    -0.161057892013E+04    0.36926E-05   -0.94888E-06  6154   0.498E-03    0.314E-03
DAV:   4    -0.161057891882E+04    0.13168E-05   -0.34955E-06  6162   0.378E-03    0.136E-03
DAV:   5    -0.161057891887E+04   -0.49020E-07   -0.14708E-06  6114   0.269E-03
  28 F= -.16105789E+04 E0= -.16105721E+04  d E =-.222531E-04
       N       E                     dE             d eps       ncg     rms          rms(c)
DAV:   1    -0.161057892902E+04   -0.10204E-04   -0.31105E-03 11940   0.710E-02    0.680E-03
DAV:   2    -0.161057893049E+04   -0.14723E-05   -0.17921E-05  6800   0.661E-03    0.501E-03
DAV:   3    -0.161057893096E+04   -0.47007E-06   -0.71446E-06  6134   0.377E-03    0.102E-03
DAV:   4    -0.161057893141E+04   -0.45095E-06   -0.32313E-06  6042   0.281E-03    0.707E-04
DAV:   5    -0.161057893151E+04   -0.95913E-07   -0.17731E-06  6042   0.224E-03
  29 F= -.16105789E+04 E0= -.16105721E+04  d E =-.126440E-04
       N       E                     dE             d eps       ncg     rms          rms(c)
DAV:   1    -0.161057893454E+04   -0.31277E-05   -0.13108E-04 11728   0.171E-02    0.497E-03
DAV:   2    -0.161057892890E+04    0.56454E-05   -0.21708E-06  6036   0.246E-03    0.231E-03
DAV:   3    -0.161057892627E+04    0.26250E-05   -0.10101E-06  6024   0.192E-03    0.128E-03
DAV:   4    -0.161057892491E+04    0.13650E-05   -0.42288E-07  6024   0.153E-03    0.599E-04
DAV:   5    -0.161057892403E+04    0.87360E-06   -0.20866E-07  6024   0.883E-04
  30 F= -.16105789E+04 E0= -.16105721E+04  d E =0.747725E-05
       N       E                     dE             d eps       ncg     rms          rms(c)
DAV:   1    -0.161057892731E+04   -0.24039E-05   -0.48943E-04 11950   0.287E-02    0.401E-03
DAV:   2    -0.161057892965E+04   -0.23440E-05   -0.32157E-06  6000   0.288E-03    0.237E-03
DAV:   3    -0.161057893118E+04   -0.15278E-05   -0.12133E-06  5998   0.177E-03    0.124E-03
DAV:   4    -0.161057893210E+04   -0.91758E-06   -0.57468E-07  6000   0.145E-03    0.653E-04
DAV:   5    -0.161057893259E+04   -0.48904E-06   -0.31101E-07  6000   0.104E-03
  31 F= -.16105789E+04 E0= -.16105721E+04  d E =-.855588E-05
       N       E                     dE             d eps       ncg     rms          rms(c)
DAV:   1    -0.161057893575E+04   -0.36513E-05   -0.38786E-04 11856   0.251E-02    0.250E-03
DAV:   2    -0.161057893589E+04   -0.14392E-06   -0.23945E-06  6000   0.247E-03    0.184E-03
DAV:   3    -0.161057893591E+04   -0.10776E-07   -0.95562E-07  5998   0.149E-03    0.651E-04
DAV:   4    -0.161057893594E+04   -0.38644E-07   -0.49506E-07  6000   0.123E-03    0.317E-04
DAV:   5    -0.161057893596E+04   -0.14544E-07   -0.27199E-07  6000   0.902E-04
  32 F= -.16105789E+04 E0= -.16105721E+04  d E =-.337017E-05
       N       E                     dE             d eps       ncg     rms          rms(c)
DAV:   1    -0.161057894463E+04   -0.86879E-05   -0.12883E-02 11936   0.145E-01    0.137E-02
DAV:   2    -0.161057895125E+04   -0.66150E-05   -0.10426E-04 15776   0.132E-02    0.106E-02
DAV:   3    -0.161057894874E+04    0.25047E-05   -0.10962E-05  6774   0.540E-03    0.347E-03
DAV:   4    -0.161057894883E+04   -0.90091E-07   -0.38436E-06  6288   0.450E-03    0.191E-03
DAV:   5    -0.161057894866E+04    0.17657E-06   -0.11756E-06  6208   0.269E-03
  33 F= -.16105789E+04 E0= -.16105721E+04  d E =-.126972E-04
