       N       E                     dE             d eps       ncg     rms          rms(c)
DAV:   1     0.244521665836E+04    0.24452E+04   -0.30263E+05 12056   0.144E+03
DAV:   2    -0.119857405142E+04   -0.36438E+04   -0.34909E+04 13908   0.321E+02
DAV:   3    -0.166749379343E+04   -0.46892E+03   -0.44009E+03 18504   0.822E+01
DAV:   4    -0.169253271054E+04   -0.25039E+02   -0.23861E+02 16872   0.180E+01
DAV:   5    -0.169358185303E+04   -0.10491E+01   -0.10328E+01 18792   0.400E+00    0.438E+01
DAV:   6    -0.164353115979E+04    0.50051E+02   -0.15918E+02 18216   0.173E+01    0.238E+01
DAV:   7    -0.163011838261E+04    0.13413E+02   -0.98949E+01 18688   0.163E+01    0.169E+01
DAV:   8    -0.161900711034E+04    0.11111E+02   -0.58617E+01 17864   0.125E+01    0.794E+00
DAV:   9    -0.161566482113E+04    0.33423E+01   -0.21836E+01 17288   0.765E+00    0.237E+00
DAV:  10    -0.161573149015E+04   -0.66669E-01   -0.39111E+00 16776   0.282E+00    0.159E+00
DAV:  11    -0.161570469685E+04    0.26793E-01   -0.47046E-01 15784   0.105E+00    0.110E+00
DAV:  12    -0.161567033327E+04    0.34364E-01   -0.18719E-01 14336   0.678E-01    0.518E-01
DAV:  13    -0.161566318741E+04    0.71459E-02   -0.39692E-02 15088   0.331E-01    0.236E-01
DAV:  14    -0.161566161149E+04    0.15759E-02   -0.10914E-02 15216   0.174E-01    0.113E-01
DAV:  15    -0.161566130366E+04    0.30783E-03   -0.35709E-03 14832   0.931E-02    0.534E-02
DAV:  16    -0.161566132382E+04   -0.20161E-04   -0.85780E-04 15384   0.446E-02    0.269E-02
DAV:  17    -0.161566131640E+04    0.74197E-05   -0.18244E-04 15808   0.232E-02    0.126E-02
DAV:  18    -0.161566130981E+04    0.65882E-05   -0.51172E-05 11624   0.136E-02
   1 F= -.16156613E+04 E0= -.16156564E+04  d E =-.161566E+04
       N       E                     dE             d eps       ncg     rms          rms(c)
DAV:   1    -0.161712435290E+04   -0.14630E+01   -0.61624E+02 12040   0.362E+01    0.120E+01
DAV:   2    -0.161075490942E+04    0.63694E+01   -0.23878E+01 16696   0.700E+00    0.599E+00
DAV:   3    -0.160926313055E+04    0.14918E+01   -0.10577E+01 17872   0.494E+00    0.421E+00
DAV:   4    -0.160850270703E+04    0.76042E+00   -0.39529E+00 18392   0.351E+00    0.260E+00
DAV:   5    -0.160812902397E+04    0.37368E+00   -0.23535E+00 16664   0.238E+00    0.827E-01
DAV:   6    -0.160812112954E+04    0.78944E-02   -0.42540E-01 15952   0.102E+00    0.566E-01
DAV:   7    -0.160811835911E+04    0.27704E-02   -0.80104E-02 15952   0.434E-01    0.395E-01
DAV:   8    -0.160811885649E+04   -0.49738E-03   -0.31864E-02 15992   0.221E-01    0.181E-01
DAV:   9    -0.160812024794E+04   -0.13914E-02   -0.94523E-03 15408   0.129E-01    0.130E-01
DAV:  10    -0.160811956342E+04    0.68451E-03   -0.23931E-03 15368   0.817E-02    0.711E-02
DAV:  11    -0.160811938768E+04    0.17574E-03   -0.15019E-03 17280   0.540E-02    0.329E-02
DAV:  12    -0.160811943943E+04   -0.51745E-04   -0.51564E-04 16224   0.301E-02    0.248E-02
DAV:  13    -0.160811943865E+04    0.77506E-06   -0.89481E-05 14248   0.156E-02
   2 F= -.16081194E+04 E0= -.16081197E+04  d E =0.754187E+01
       N       E                     dE             d eps       ncg     rms          rms(c)
DAV:   1    -0.162248339805E+04   -0.14364E+02   -0.24439E+02 12040   0.255E+01    0.869E+00
DAV:   2    -0.161891436567E+04    0.35690E+01   -0.69064E+00 14260   0.415E+00    0.409E+00
DAV:   3    -0.161822317030E+04    0.69120E+00   -0.30098E+00 15280   0.277E+00    0.250E+00
DAV:   4    -0.161789268097E+04    0.33049E+00   -0.14085E+00 16280   0.235E+00    0.122E+00
DAV:   5    -0.161780747837E+04    0.85203E-01   -0.64894E-01 15808   0.137E+00    0.375E-01
DAV:   6    -0.161781026507E+04   -0.27867E-02   -0.10949E-01 15048   0.535E-01    0.277E-01
DAV:   7    -0.161781102988E+04   -0.76481E-03   -0.18377E-02 15952   0.213E-01    0.192E-01
DAV:   8    -0.161781281666E+04   -0.17868E-02   -0.89942E-03 15320   0.120E-01    0.870E-02
DAV:   9    -0.161781332782E+04   -0.51116E-03   -0.18028E-03 13960   0.632E-02    0.508E-02
DAV:  10    -0.161781339969E+04   -0.71864E-04   -0.80074E-04 16152   0.417E-02    0.269E-02
DAV:  11    -0.161781351616E+04   -0.11647E-03   -0.29887E-04 15352   0.267E-02    0.248E-02
DAV:  12    -0.161781354261E+04   -0.26452E-04   -0.78964E-05 13368   0.131E-02    0.111E-02
DAV:  13    -0.161781353172E+04    0.10894E-04   -0.22127E-05  7360   0.675E-03    0.344E-03
DAV:  14    -0.161781352712E+04    0.45948E-05   -0.88796E-06  7016   0.492E-03
   3 F= -.16178135E+04 E0= -.16178175E+04  d E =-.969409E+01
       N       E                     dE             d eps       ncg     rms          rms(c)
DAV:   1    -0.161786397597E+04   -0.50444E-01   -0.96677E+00 12040   0.394E+00    0.492E-01
DAV:   2    -0.161787315428E+04   -0.91783E-02   -0.17599E-01 17176   0.680E-01    0.368E-01
DAV:   3    -0.161786740136E+04    0.57529E-02   -0.42383E-02 18336   0.354E-01    0.251E-01
DAV:   4    -0.161786614005E+04    0.12613E-02   -0.81351E-03 18648   0.143E-01    0.162E-01
DAV:   5    -0.161786550156E+04    0.63849E-03   -0.46905E-03 16752   0.111E-01    0.541E-02
DAV:   6    -0.161786539096E+04    0.11060E-03   -0.12228E-03 16320   0.620E-02    0.328E-02
DAV:   7    -0.161786536229E+04    0.28672E-04   -0.25200E-04 16256   0.255E-02    0.191E-02
DAV:   8    -0.161786535772E+04    0.45704E-05   -0.66078E-05 12704   0.117E-02
   4 F= -.16178654E+04 E0= -.16178700E+04  d E =-.518306E-01
       N       E                     dE             d eps       ncg     rms          rms(c)
DAV:   1    -0.161787265238E+04   -0.72901E-02   -0.11579E+00 12088   0.137E+00    0.157E-01
DAV:   2    -0.161787386018E+04   -0.12078E-02   -0.17147E-02 16600   0.239E-01    0.135E-01
DAV:   3    -0.161787278070E+04    0.10795E-02   -0.53083E-03 18028   0.131E-01    0.840E-02
DAV:   4    -0.161787265010E+04    0.13059E-03   -0.93295E-04 17240   0.476E-02    0.488E-02
DAV:   5    -0.161787261271E+04    0.37389E-04   -0.52964E-04 15712   0.381E-02    0.178E-02
DAV:   6    -0.161787260107E+04    0.11642E-04   -0.14059E-04 15360   0.213E-02    0.105E-02
DAV:   7    -0.161787259507E+04    0.59999E-05   -0.21009E-05  7936   0.804E-03
   5 F= -.16178726E+04 E0= -.16178775E+04  d E =-.723735E-02
       N       E                     dE             d eps       ncg     rms          rms(c)
DAV:   1    -0.161787448019E+04   -0.18791E-02   -0.20459E-01 12196   0.629E-01    0.154E-01
DAV:   2    -0.161787362903E+04    0.85116E-03   -0.44648E-03 16552   0.124E-01    0.925E-02
DAV:   3    -0.161787319456E+04    0.43447E-03   -0.22944E-03 17408   0.854E-02    0.635E-02
DAV:   4    -0.161787292814E+04    0.26642E-03   -0.69701E-04 16272   0.455E-02    0.272E-02
DAV:   5    -0.161787285836E+04    0.69779E-04   -0.28778E-04 15504   0.282E-02    0.112E-02
DAV:   6    -0.161787284758E+04    0.10785E-04   -0.61569E-05 13208   0.148E-02    0.701E-03
DAV:   7    -0.161787284698E+04    0.59995E-06   -0.10787E-05  6960   0.617E-03
   6 F= -.16178728E+04 E0= -.16178781E+04  d E =-.251904E-03
       N       E                     dE             d eps       ncg     rms          rms(c)
DAV:   1    -0.161787530709E+04   -0.24595E-02   -0.76926E-02 12196   0.400E-01    0.105E-01
DAV:   2    -0.161787493120E+04    0.37590E-03   -0.13042E-03 15464   0.572E-02    0.533E-02
DAV:   3    -0.161787488907E+04    0.42128E-04   -0.59702E-04 16858   0.415E-02    0.382E-02
DAV:   4    -0.161787484244E+04    0.46630E-04   -0.28779E-04 16696   0.314E-02    0.159E-02
DAV:   5    -0.161787485936E+04   -0.16926E-04   -0.11165E-04 14392   0.167E-02    0.607E-03
DAV:   6    -0.161787486009E+04   -0.72220E-06   -0.13487E-05  6920   0.691E-03
   7 F= -.16178749E+04 E0= -.16178800E+04  d E =-.201311E-02
       N       E                     dE             d eps       ncg     rms          rms(c)
DAV:   1    -0.161787542182E+04   -0.56246E-03   -0.63945E-02 12196   0.322E-01    0.396E-02
DAV:   2    -0.161787547217E+04   -0.50350E-04   -0.89875E-04 16704   0.576E-02    0.348E-02
DAV:   3    -0.161787539097E+04    0.81196E-04   -0.32410E-04 17312   0.330E-02    0.207E-02
DAV:   4    -0.161787537311E+04    0.17865E-04   -0.50723E-05 11664   0.119E-02    0.101E-02
DAV:   5    -0.161787536538E+04    0.77275E-05   -0.18452E-05  8408   0.934E-03
   8 F= -.16178754E+04 E0= -.16178806E+04  d E =-.505296E-03
       N       E                     dE             d eps       ncg     rms          rms(c)
DAV:   1    -0.161787559315E+04   -0.22004E-03   -0.36722E-02 12196   0.246E-01    0.309E-02
DAV:   2    -0.161787562466E+04   -0.31513E-04   -0.41075E-04 16680   0.341E-02    0.231E-02
DAV:   3    -0.161787560739E+04    0.17277E-04   -0.11530E-04 15610   0.196E-02    0.162E-02
DAV:   4    -0.161787561264E+04   -0.52540E-05   -0.30330E-05  8168   0.925E-03    0.512E-03
DAV:   5    -0.161787561648E+04   -0.38406E-05   -0.93344E-06  6904   0.658E-03
   9 F= -.16178756E+04 E0= -.16178808E+04  d E =-.251099E-03
       N       E                     dE             d eps       ncg     rms          rms(c)
DAV:   1    -0.161787573743E+04   -0.12479E-03   -0.26956E-03 12208   0.779E-02    0.242E-02
DAV:   2    -0.161787569069E+04    0.46743E-04   -0.60662E-05 13208   0.126E-02    0.121E-02
DAV:   3    -0.161787567620E+04    0.14493E-04   -0.23588E-05  8888   0.978E-03    0.799E-03
DAV:   4    -0.161787566323E+04    0.12965E-04   -0.86171E-06  7192   0.721E-03    0.341E-03
DAV:   5    -0.161787565683E+04    0.64010E-05   -0.55217E-06  6464   0.413E-03
  10 F= -.16178757E+04 E0= -.16178809E+04  d E =-.403493E-04
       N       E                     dE             d eps       ncg     rms          rms(c)
DAV:   1    -0.161787577780E+04   -0.11457E-03   -0.13323E-02 12196   0.147E-01    0.164E-02
DAV:   2    -0.161787579014E+04   -0.12332E-04   -0.12371E-04 15656   0.180E-02    0.125E-02
DAV:   3    -0.161787578650E+04    0.36328E-05   -0.22654E-05  8826   0.960E-03    0.929E-03
DAV:   4    -0.161787579047E+04   -0.39692E-05   -0.14363E-05  6512   0.581E-03    0.216E-03
DAV:   5    -0.161787579150E+04   -0.10235E-05   -0.41601E-06  6464   0.431E-03
  11 F= -.16178758E+04 E0= -.16178810E+04  d E =-.134666E-03
       N       E                     dE             d eps       ncg     rms          rms(c)
DAV:   1    -0.161787589055E+04   -0.10008E-03   -0.12800E-02 12208   0.144E-01    0.153E-02
DAV:   2    -0.161787589228E+04   -0.17292E-05   -0.11835E-04 16192   0.167E-02    0.120E-02
DAV:   3    -0.161787588702E+04    0.52628E-05   -0.20047E-05  8600   0.928E-03    0.894E-03
DAV:   4    -0.161787588091E+04    0.61112E-05   -0.11984E-05  6472   0.560E-03    0.237E-03
DAV:   5    -0.161787587997E+04    0.93528E-06   -0.38643E-06  6456   0.423E-03
  12 F= -.16178759E+04 E0= -.16178811E+04  d E =-.884755E-04
       N       E                     dE             d eps       ncg     rms          rms(c)
DAV:   1    -0.161787590031E+04   -0.19407E-04   -0.12102E-03 12208   0.475E-02    0.104E-02
DAV:   2    -0.161787590501E+04   -0.46997E-05   -0.12391E-05  6416   0.585E-03    0.545E-03
DAV:   3    -0.161787590965E+04   -0.46372E-05   -0.56747E-06  6408   0.434E-03    0.267E-03
DAV:   4    -0.161787591249E+04   -0.28406E-05   -0.24908E-06  6320   0.365E-03    0.124E-03
DAV:   5    -0.161787591415E+04   -0.16571E-05   -0.13196E-06  6320   0.218E-03
  13 F= -.16178759E+04 E0= -.16178811E+04  d E =-.341766E-04
       N       E                     dE             d eps       ncg     rms          rms(c)
DAV:   1    -0.161787597418E+04   -0.61688E-04   -0.47870E-03 12208   0.884E-02    0.106E-02
DAV:   2    -0.161787596861E+04    0.55715E-05   -0.32538E-05  9344   0.943E-03    0.710E-03
DAV:   3    -0.161787596635E+04    0.22564E-05   -0.98803E-06  6872   0.612E-03    0.508E-03
DAV:   4    -0.161787596213E+04    0.42215E-05   -0.53589E-06  6368   0.456E-03    0.160E-03
DAV:   5    -0.161787596128E+04    0.85140E-06   -0.27592E-06  6296   0.310E-03
  14 F= -.16178760E+04 E0= -.16178812E+04  d E =-.471297E-04
       N       E                     dE             d eps       ncg     rms          rms(c)
DAV:   1    -0.161787600299E+04   -0.40863E-04   -0.49243E-03 12208   0.891E-02    0.923E-03
DAV:   2    -0.161787600700E+04   -0.40087E-05   -0.33365E-05  9280   0.885E-03    0.669E-03
DAV:   3    -0.161787600849E+04   -0.14920E-05   -0.96937E-06  6488   0.528E-03    0.359E-03
DAV:   4    -0.161787601032E+04   -0.18248E-05   -0.51953E-06  6296   0.441E-03    0.810E-04
DAV:   5    -0.161787601042E+04   -0.10658E-06   -0.25239E-06  6288   0.293E-03
  15 F= -.16178760E+04 E0= -.16178812E+04  d E =-.491469E-04
       N       E                     dE             d eps       ncg     rms          rms(c)
DAV:   1    -0.161787603926E+04   -0.28938E-04   -0.16748E-03 12208   0.528E-02    0.767E-03
DAV:   2    -0.161787603295E+04    0.63086E-05   -0.13166E-05  6272   0.599E-03    0.459E-03
DAV:   3    -0.161787603013E+04    0.28207E-05   -0.52128E-06  6272   0.416E-03    0.279E-03
DAV:   4    -0.161787602761E+04    0.25127E-05   -0.27345E-06  6272   0.338E-03    0.120E-03
DAV:   5    -0.161787602661E+04    0.10061E-05   -0.15887E-06  6272   0.231E-03
  16 F= -.16178760E+04 E0= -.16178813E+04  d E =-.161830E-04
       N       E                     dE             d eps       ncg     rms          rms(c)
DAV:   1    -0.161787604672E+04   -0.19104E-04   -0.15150E-03 12208   0.498E-02    0.634E-03
DAV:   2    -0.161787604996E+04   -0.32410E-05   -0.10324E-05  6448   0.519E-03    0.410E-03
DAV:   3    -0.161787605232E+04   -0.23647E-05   -0.41557E-06  6288   0.319E-03    0.185E-03
DAV:   4    -0.161787605386E+04   -0.15331E-05   -0.21404E-06  6272   0.258E-03    0.876E-04
DAV:   5    -0.161787605431E+04   -0.44957E-06   -0.11708E-06  6272   0.197E-03
  17 F= -.16178761E+04 E0= -.16178813E+04  d E =-.276982E-04
       N       E                     dE             d eps       ncg     rms          rms(c)
DAV:   1    -0.161787608221E+04   -0.28351E-04   -0.28639E-03 12208   0.679E-02    0.691E-03
DAV:   2    -0.161787608133E+04    0.87581E-06   -0.16931E-05  8200   0.670E-03    0.499E-03
DAV:   3    -0.161787608017E+04    0.11572E-05   -0.62090E-06  6448   0.395E-03    0.236E-03
DAV:   4    -0.161787607933E+04    0.84780E-06   -0.34137E-06  6296   0.337E-03    0.669E-04
DAV:   5    -0.161787607954E+04   -0.21331E-06   -0.18171E-06  6272   0.242E-03
  18 F= -.16178761E+04 E0= -.16178813E+04  d E =-.252339E-04
       N       E                     dE             d eps       ncg     rms          rms(c)
DAV:   1    -0.161787609674E+04   -0.17409E-04   -0.24491E-03 12208   0.633E-02    0.763E-03
DAV:   2    -0.161787610074E+04   -0.40014E-05   -0.16315E-05  6640   0.654E-03    0.499E-03
DAV:   3    -0.161787610353E+04   -0.27941E-05   -0.63814E-06  6344   0.391E-03    0.225E-03
DAV:   4    -0.161787610549E+04   -0.19535E-05   -0.32834E-06  6272   0.314E-03    0.105E-03
DAV:   5    -0.161787610600E+04   -0.51795E-06   -0.18097E-06  6272   0.243E-03
  19 F= -.16178761E+04 E0= -.16178813E+04  d E =-.264631E-04
       N       E                     dE             d eps       ncg     rms          rms(c)
DAV:   1    -0.161787611819E+04   -0.12700E-04   -0.21443E-04 12096   0.201E-02    0.493E-03
DAV:   2    -0.161787611319E+04    0.49931E-05   -0.33415E-06  6272   0.296E-03    0.250E-03
DAV:   3    -0.161787611082E+04    0.23725E-05   -0.15668E-06  6272   0.225E-03    0.142E-03
DAV:   4    -0.161787610931E+04    0.15063E-05   -0.77237E-07  6272   0.172E-03    0.666E-04
DAV:   5    -0.161787610844E+04    0.87633E-06   -0.44571E-07  6272   0.119E-03
  20 F= -.16178761E+04 E0= -.16178813E+04  d E =-.243384E-05
       N       E                     dE             d eps       ncg     rms          rms(c)
DAV:   1    -0.161787612460E+04   -0.15284E-04   -0.17905E-03 12208   0.537E-02    0.529E-03
DAV:   2    -0.161787612544E+04   -0.84217E-06   -0.99822E-06  6512   0.514E-03    0.388E-03
DAV:   3    -0.161787612578E+04   -0.33681E-06   -0.38706E-06  6336   0.299E-03    0.107E-03
DAV:   4    -0.161787612609E+04   -0.30905E-06   -0.18435E-06  6272   0.242E-03    0.619E-04
DAV:   5    -0.161787612610E+04   -0.14962E-07   -0.10075E-06  6272   0.176E-03
  21 F= -.16178761E+04 E0= -.16178814E+04  d E =-.176635E-04
       N       E                     dE             d eps       ncg     rms          rms(c)
DAV:   1    -0.161787616632E+04   -0.40238E-04   -0.18027E-02 12148   0.170E-01    0.168E-02
DAV:   2    -0.161787617147E+04   -0.51484E-05   -0.15418E-04 17136   0.161E-02    0.127E-02
DAV:   3    -0.161787616527E+04    0.61982E-05   -0.10991E-05  7488   0.565E-03    0.613E-03
DAV:   4    -0.161787616211E+04    0.31588E-05   -0.63352E-06  6688   0.548E-03    0.194E-03
DAV:   5    -0.161787616198E+04    0.13797E-06   -0.18204E-06  6396   0.356E-03
  22 F= -.16178762E+04 E0= -.16178814E+04  d E =-.358760E-04
       N       E                     dE             d eps       ncg     rms          rms(c)
DAV:   1    -0.161787613606E+04    0.26057E-04   -0.72414E-03 12160   0.109E-01    0.122E-02
DAV:   2    -0.161787614155E+04   -0.54949E-05   -0.48157E-05 10936   0.101E-02    0.843E-03
DAV:   3    -0.161787614343E+04   -0.18801E-05   -0.90320E-06  6274   0.513E-03    0.442E-03
DAV:   4    -0.161787614591E+04   -0.24800E-05   -0.38690E-06  6272   0.416E-03    0.150E-03
DAV:   5    -0.161787614649E+04   -0.57337E-06   -0.17141E-06  6272   0.288E-03
  23 F= -.16178761E+04 E0= -.16178814E+04  d E =0.154911E-04
       N       E                     dE             d eps       ncg     rms          rms(c)
DAV:   1    -0.161787616720E+04   -0.21293E-04   -0.42889E-03 12172   0.832E-02    0.796E-03
DAV:   2    -0.161787616698E+04    0.22707E-06   -0.20111E-05  6624   0.755E-03    0.580E-03
DAV:   3    -0.161787616543E+04    0.15489E-05   -0.68344E-06  6254   0.393E-03    0.125E-03
DAV:   4    -0.161787616542E+04    0.88598E-08   -0.27269E-06  6272   0.288E-03    0.852E-04
DAV:   5    -0.161787616556E+04   -0.13524E-06   -0.13757E-06  6272   0.214E-03
  24 F= -.16178762E+04 E0= -.16178814E+04  d E =-.190700E-04
       N       E                     dE             d eps       ncg     rms          rms(c)
DAV:   1    -0.161787618706E+04   -0.21637E-04   -0.12541E-02 12136   0.142E-01    0.136E-02
DAV:   2    -0.161787619351E+04   -0.64476E-05   -0.10627E-04 15840   0.134E-02    0.105E-02
DAV:   3    -0.161787619048E+04    0.30220E-05   -0.11485E-05  6822   0.544E-03    0.302E-03
DAV:   4    -0.161787619038E+04    0.10722E-06   -0.35070E-06  6416   0.425E-03    0.176E-03
DAV:   5    -0.161787619029E+04    0.86288E-07   -0.10942E-06  6330   0.252E-03
  25 F= -.16178762E+04 E0= -.16178814E+04  d E =-.247343E-04
       N       E                     dE             d eps       ncg     rms          rms(c)
DAV:   1    -0.161787619910E+04   -0.87245E-05   -0.60223E-03 12172   0.985E-02    0.934E-03
DAV:   2    -0.161787620076E+04   -0.16590E-05   -0.37474E-05  9760   0.921E-03    0.700E-03
DAV:   3    -0.161787619979E+04    0.96571E-06   -0.10742E-05  6428   0.501E-03    0.199E-03
DAV:   4    -0.161787619993E+04   -0.13520E-06   -0.44953E-06  6296   0.383E-03    0.109E-03
DAV:   5    -0.161787620010E+04   -0.16913E-06   -0.22779E-06  6288   0.280E-03
  26 F= -.16178762E+04 E0= -.16178814E+04  d E =-.980842E-05
