       N       E                     dE             d eps       ncg     rms          rms(c)
DAV:   1     0.225552534913E+04    0.22555E+04   -0.29306E+05 11704   0.143E+03
DAV:   2    -0.119590812262E+04   -0.34514E+04   -0.33124E+04 13556   0.302E+02
DAV:   3    -0.163509264524E+04   -0.43918E+03   -0.40722E+03 17976   0.820E+01
DAV:   4    -0.166024762251E+04   -0.25155E+02   -0.23528E+02 16448   0.176E+01
DAV:   5    -0.166132726831E+04   -0.10796E+01   -0.10618E+01 18120   0.416E+00    0.416E+01
DAV:   6    -0.161732669792E+04    0.44001E+02   -0.13108E+02 17832   0.157E+01    0.233E+01
DAV:   7    -0.160601545603E+04    0.11311E+02   -0.96013E+01 18648   0.162E+01    0.176E+01
DAV:   8    -0.159469392883E+04    0.11322E+02   -0.61162E+01 17456   0.123E+01    0.923E+00
DAV:   9    -0.159010265706E+04    0.45913E+01   -0.24361E+01 16800   0.783E+00    0.287E+00
DAV:  10    -0.159011348908E+04   -0.10832E-01   -0.45982E+00 16768   0.302E+00    0.172E+00
DAV:  11    -0.159009681763E+04    0.16671E-01   -0.53854E-01 15480   0.113E+00    0.122E+00
DAV:  12    -0.159007290053E+04    0.23917E-01   -0.22663E-01 14480   0.757E-01    0.652E-01
DAV:  13    -0.159006070133E+04    0.12199E-01   -0.59772E-02 14504   0.434E-01    0.354E-01
DAV:  14    -0.159005674267E+04    0.39587E-02   -0.20691E-02 15592   0.224E-01    0.170E-01
DAV:  15    -0.159005574129E+04    0.10014E-02   -0.65804E-03 15048   0.133E-01    0.793E-02
DAV:  16    -0.159005564384E+04    0.97447E-04   -0.22194E-03 15496   0.706E-02    0.412E-02
DAV:  17    -0.159005561879E+04    0.25056E-04   -0.52816E-04 15248   0.361E-02    0.238E-02
DAV:  18    -0.159005559812E+04    0.20670E-04   -0.14205E-04 15176   0.213E-02    0.143E-02
DAV:  19    -0.159005558260E+04    0.15515E-04   -0.44482E-05 10032   0.122E-02    0.696E-03
DAV:  20    -0.159005557788E+04    0.47203E-05   -0.18779E-05  7400   0.653E-03
   1 F= -.15900556E+04 E0= -.15900606E+04  d E =-.159006E+04
       N       E                     dE             d eps       ncg     rms          rms(c)
DAV:   1    -0.159468578348E+04   -0.46302E+01   -0.13266E+03 11704   0.545E+01    0.195E+01
DAV:   2    -0.157977765930E+04    0.14908E+02   -0.80673E+01 18016   0.119E+01    0.110E+01
DAV:   3    -0.157566457456E+04    0.41131E+01   -0.41489E+01 19560   0.922E+00    0.777E+00
DAV:   4    -0.157318783529E+04    0.24767E+01   -0.13905E+01 19480   0.583E+00    0.523E+00
DAV:   5    -0.157188375133E+04    0.13041E+01   -0.80666E+00 17256   0.386E+00    0.185E+00
DAV:   6    -0.157178035296E+04    0.10340E+00   -0.16854E+00 16584   0.187E+00    0.107E+00
DAV:   7    -0.157176776332E+04    0.12590E-01   -0.30030E-01 15408   0.859E-01    0.751E-01
DAV:   8    -0.157176322432E+04    0.45390E-02   -0.97064E-02 17152   0.387E-01    0.411E-01
DAV:   9    -0.157176828242E+04   -0.50581E-02   -0.55279E-02 17632   0.261E-01    0.245E-01
DAV:  10    -0.157176855006E+04   -0.26764E-03   -0.12978E-02 16336   0.185E-01    0.173E-01
DAV:  11    -0.157176760104E+04    0.94902E-03   -0.56447E-03 18488   0.110E-01    0.858E-02
DAV:  12    -0.157176756107E+04    0.39968E-04   -0.30733E-03 18168   0.665E-02    0.496E-02
DAV:  13    -0.157176771407E+04   -0.15300E-03   -0.61966E-04 16472   0.359E-02    0.351E-02
DAV:  14    -0.157176772528E+04   -0.11208E-04   -0.29140E-04 17120   0.255E-02    0.157E-02
DAV:  15    -0.157176773053E+04   -0.52486E-05   -0.78203E-05 12904   0.121E-02
   2 F= -.15717677E+04 E0= -.15717769E+04  d E =0.182878E+02
       N       E                     dE             d eps       ncg     rms          rms(c)
DAV:   1    -0.160610662778E+04   -0.34339E+02   -0.58983E+02 11704   0.403E+01    0.137E+01
DAV:   2    -0.159783977528E+04    0.82669E+01   -0.22394E+01 16390   0.727E+00    0.643E+00
DAV:   3    -0.159663490465E+04    0.12049E+01   -0.11244E+01 17080   0.512E+00    0.496E+00
DAV:   4    -0.159544089769E+04    0.11940E+01   -0.49030E+00 17824   0.405E+00    0.268E+00
DAV:   5    -0.159507158315E+04    0.36931E+00   -0.25308E+00 16392   0.246E+00    0.853E-01
DAV:   6    -0.159506520005E+04    0.63831E-02   -0.47690E-01 14664   0.108E+00    0.548E-01
DAV:   7    -0.159506883969E+04   -0.36396E-02   -0.75881E-02 15624   0.416E-01    0.399E-01
DAV:   8    -0.159507168279E+04   -0.28431E-02   -0.21697E-02 15728   0.202E-01    0.210E-01
DAV:   9    -0.159507763090E+04   -0.59481E-02   -0.18796E-02 16472   0.163E-01    0.158E-01
DAV:  10    -0.159507720413E+04    0.42678E-03   -0.36724E-03 16432   0.103E-01    0.813E-02
DAV:  11    -0.159507713139E+04    0.72731E-04   -0.16575E-03 17072   0.546E-02    0.374E-02
DAV:  12    -0.159507737530E+04   -0.24391E-03   -0.94715E-04 17160   0.403E-02    0.417E-02
DAV:  13    -0.159507742176E+04   -0.46456E-04   -0.20508E-04 15880   0.202E-02    0.200E-02
DAV:  14    -0.159507741360E+04    0.81607E-05   -0.53836E-05 11160   0.112E-02
   3 F= -.15950774E+04 E0= -.15950605E+04  d E =-.233097E+02
       N       E                     dE             d eps       ncg     rms          rms(c)
DAV:   1    -0.159517558148E+04   -0.98160E-01   -0.14267E+01 11704   0.491E+00    0.608E-01
DAV:   2    -0.159519320008E+04   -0.17619E-01   -0.26846E-01 17560   0.726E-01    0.509E-01
DAV:   3    -0.159518137300E+04    0.11827E-01   -0.68223E-02 18432   0.448E-01    0.317E-01
DAV:   4    -0.159517919685E+04    0.21762E-02   -0.12814E-02 17336   0.173E-01    0.204E-01
DAV:   5    -0.159517833855E+04    0.85830E-03   -0.72467E-03 15792   0.134E-01    0.848E-02
DAV:   6    -0.159517816526E+04    0.17329E-03   -0.24379E-03 16056   0.867E-02    0.461E-02
DAV:   7    -0.159517809404E+04    0.71218E-04   -0.64341E-04 15944   0.417E-02    0.270E-02
DAV:   8    -0.159517807304E+04    0.21002E-04   -0.15228E-04 14688   0.178E-02    0.164E-02
DAV:   9    -0.159517806693E+04    0.61048E-05   -0.45797E-05 10648   0.109E-02
   4 F= -.15951781E+04 E0= -.15951613E+04  d E =-.100653E+00
       N       E                     dE             d eps       ncg     rms          rms(c)
DAV:   1    -0.159520020434E+04   -0.22131E-01   -0.36306E+00 11708   0.250E+00    0.389E-01
DAV:   2    -0.159520542634E+04   -0.52220E-02   -0.89438E-02 18296   0.478E-01    0.360E-01
DAV:   3    -0.159519718205E+04    0.82443E-02   -0.35531E-02 18752   0.321E-01    0.179E-01
DAV:   4    -0.159519621393E+04    0.96812E-03   -0.50768E-03 16888   0.108E-01    0.117E-01
DAV:   5    -0.159519578702E+04    0.42691E-03   -0.25835E-03 15840   0.815E-02    0.558E-02
DAV:   6    -0.159519568526E+04    0.10175E-03   -0.95001E-04 15792   0.544E-02    0.317E-02
DAV:   7    -0.159519565443E+04    0.30833E-04   -0.25772E-04 15504   0.270E-02    0.191E-02
DAV:   8    -0.159519565619E+04   -0.17549E-05   -0.63726E-05 12192   0.117E-02
   5 F= -.15951957E+04 E0= -.15951787E+04  d E =-.175893E-01
       N       E                     dE             d eps       ncg     rms          rms(c)
DAV:   1    -0.159520288976E+04   -0.72353E-02   -0.27244E-01 11840   0.846E-01    0.277E-01
DAV:   2    -0.159519965753E+04    0.32322E-02   -0.99103E-03 16648   0.143E-01    0.130E-01
DAV:   3    -0.159519919396E+04    0.46357E-03   -0.47654E-03 16848   0.102E-01    0.946E-02
DAV:   4    -0.159519886883E+04    0.32513E-03   -0.18635E-03 18136   0.782E-02    0.554E-02
DAV:   5    -0.159519876964E+04    0.99185E-04   -0.98460E-04 16960   0.495E-02    0.181E-02
DAV:   6    -0.159519877628E+04   -0.66396E-05   -0.19727E-04 14792   0.217E-02    0.111E-02
DAV:   7    -0.159519877652E+04   -0.24172E-06   -0.24212E-05  7352   0.848E-03
   6 F= -.15951988E+04 E0= -.15951821E+04  d E =-.312034E-02
       N       E                     dE             d eps       ncg     rms          rms(c)
DAV:   1    -0.159520578227E+04   -0.70060E-02   -0.50528E-01 11740   0.944E-01    0.169E-01
DAV:   2    -0.159520629443E+04   -0.51217E-03   -0.13409E-02 18288   0.193E-01    0.152E-01
DAV:   3    -0.159520480089E+04    0.14935E-02   -0.61782E-03 18752   0.134E-01    0.743E-02
DAV:   4    -0.159520458592E+04    0.21497E-03   -0.93714E-04 16520   0.464E-02    0.457E-02
DAV:   5    -0.159520448336E+04    0.10256E-03   -0.44718E-04 15744   0.348E-02    0.215E-02
DAV:   6    -0.159520445781E+04    0.25552E-04   -0.15209E-04 15184   0.222E-02    0.123E-02
DAV:   7    -0.159520445200E+04    0.58055E-05   -0.32724E-05  8560   0.107E-02
   7 F= -.15952045E+04 E0= -.15951877E+04  d E =-.567548E-02
       N       E                     dE             d eps       ncg     rms          rms(c)
DAV:   1    -0.159520602433E+04   -0.15665E-02   -0.20047E-01 11752   0.579E-01    0.686E-02
DAV:   2    -0.159520643904E+04   -0.41470E-03   -0.33481E-03 17608   0.987E-02    0.776E-02
DAV:   3    -0.159520605177E+04    0.38726E-03   -0.13312E-03 17838   0.636E-02    0.372E-02
DAV:   4    -0.159520603615E+04    0.15628E-04   -0.20181E-04 16448   0.211E-02    0.200E-02
DAV:   5    -0.159520603232E+04    0.38247E-05   -0.89074E-05 14280   0.167E-02
   8 F= -.15952060E+04 E0= -.15951893E+04  d E =-.158032E-02
       N       E                     dE             d eps       ncg     rms          rms(c)
DAV:   1    -0.159520666854E+04   -0.63240E-03   -0.49887E-02 11840   0.308E-01    0.665E-02
DAV:   2    -0.159520655019E+04    0.11836E-03   -0.12228E-03 17568   0.564E-02    0.468E-02
DAV:   3    -0.159520643192E+04    0.11827E-03   -0.60925E-04 18936   0.423E-02    0.288E-02
DAV:   4    -0.159520637511E+04    0.56812E-04   -0.13795E-04 15776   0.184E-02    0.154E-02
DAV:   5    -0.159520634806E+04    0.27048E-04   -0.59100E-05 12480   0.129E-02    0.647E-03
DAV:   6    -0.159520634277E+04    0.52859E-05   -0.13852E-05  7016   0.789E-03
   9 F= -.15952063E+04 E0= -.15951896E+04  d E =-.310452E-03
       N       E                     dE             d eps       ncg     rms          rms(c)
DAV:   1    -0.159520693690E+04   -0.58884E-03   -0.26992E-02 11832   0.225E-01    0.452E-02
DAV:   2    -0.159520691664E+04    0.20263E-04   -0.39326E-04 16832   0.294E-02    0.259E-02
DAV:   3    -0.159520691270E+04    0.39384E-05   -0.15835E-04 17028   0.217E-02    0.205E-02
DAV:   4    -0.159520690783E+04    0.48696E-05   -0.57561E-05 11096   0.129E-02    0.918E-03
DAV:   5    -0.159520691669E+04   -0.88573E-05   -0.21099E-05  6902   0.811E-03
  10 F= -.15952069E+04 E0= -.15951902E+04  d E =-.573917E-03
       N       E                     dE             d eps       ncg     rms          rms(c)
DAV:   1    -0.159520731496E+04   -0.40713E-03   -0.41491E-02 11760   0.263E-01    0.292E-02
DAV:   2    -0.159520735974E+04   -0.44779E-04   -0.53240E-04 18048   0.368E-02    0.291E-02
DAV:   3    -0.159520731397E+04    0.45769E-04   -0.17041E-04 16920   0.235E-02    0.169E-02
DAV:   4    -0.159520730447E+04    0.95024E-05   -0.26176E-05  8040   0.846E-03    0.842E-03
DAV:   5    -0.159520730043E+04    0.40382E-05   -0.11718E-05  6992   0.751E-03
  11 F= -.15952073E+04 E0= -.15951906E+04  d E =-.383742E-03
       N       E                     dE             d eps       ncg     rms          rms(c)
DAV:   1    -0.159520766475E+04   -0.36027E-03   -0.71570E-02 11740   0.346E-01    0.355E-02
DAV:   2    -0.159520772763E+04   -0.62884E-04   -0.69966E-04 17192   0.381E-02    0.301E-02
DAV:   3    -0.159520770054E+04    0.27093E-04   -0.15079E-04 16458   0.221E-02    0.215E-02
DAV:   4    -0.159520769997E+04    0.56828E-06   -0.48005E-05 10992   0.104E-02    0.639E-03
DAV:   5    -0.159520770223E+04   -0.22575E-05   -0.11133E-05  7128   0.736E-03
  12 F= -.15952077E+04 E0= -.15951910E+04  d E =-.401792E-03
       N       E                     dE             d eps       ncg     rms          rms(c)
DAV:   1    -0.159520772876E+04   -0.28797E-04   -0.24975E-03 11856   0.751E-02    0.216E-02
DAV:   2    -0.159520768836E+04    0.40409E-04   -0.52097E-05 10536   0.111E-02    0.101E-02
DAV:   3    -0.159520767533E+04    0.13022E-04   -0.16407E-05  6904   0.778E-03    0.641E-03
DAV:   4    -0.159520766762E+04    0.77138E-05   -0.59181E-06  6568   0.603E-03    0.358E-03
DAV:   5    -0.159520766219E+04    0.54348E-05   -0.34532E-06  6272   0.381E-03
  13 F= -.15952077E+04 E0= -.15951910E+04  d E =0.400398E-04
       N       E                     dE             d eps       ncg     rms          rms(c)
DAV:   1    -0.159520786516E+04   -0.19754E-03   -0.23202E-02 11756   0.196E-01    0.190E-02
DAV:   2    -0.159520788264E+04   -0.17480E-04   -0.19606E-04 16912   0.193E-02    0.155E-02
DAV:   3    -0.159520787747E+04    0.51730E-05   -0.21146E-05  8284   0.986E-03    0.119E-02
DAV:   4    -0.159520787885E+04   -0.13817E-05   -0.18594E-05  6352   0.674E-03    0.281E-03
DAV:   5    -0.159520787956E+04   -0.71354E-06   -0.48887E-06  6272   0.503E-03
  14 F= -.15952079E+04 E0= -.15951912E+04  d E =-.217379E-03
       N       E                     dE             d eps       ncg     rms          rms(c)
DAV:   1    -0.159520810413E+04   -0.22528E-03   -0.39472E-02 11744   0.256E-01    0.245E-02
DAV:   2    -0.159520812361E+04   -0.19483E-04   -0.35073E-04 17120   0.255E-02    0.202E-02
DAV:   3    -0.159520811345E+04    0.10154E-04   -0.45501E-05 10412   0.130E-02    0.155E-02
DAV:   4    -0.159520810377E+04    0.96819E-05   -0.23842E-05  6984   0.805E-03    0.469E-03
DAV:   5    -0.159520810233E+04    0.14410E-05   -0.74916E-06  6448   0.617E-03
  15 F= -.15952081E+04 E0= -.15951914E+04  d E =-.222767E-03
       N       E                     dE             d eps       ncg     rms          rms(c)
DAV:   1    -0.159520810631E+04   -0.25383E-05   -0.75824E-04 11856   0.439E-02    0.140E-02
DAV:   2    -0.159520810999E+04   -0.36833E-05   -0.18420E-05  6256   0.737E-03    0.645E-03
DAV:   3    -0.159520811426E+04   -0.42634E-05   -0.80090E-06  6248   0.640E-03    0.466E-03
DAV:   4    -0.159520811728E+04   -0.30187E-05   -0.36692E-06  6224   0.455E-03    0.198E-03
DAV:   5    -0.159520812000E+04   -0.27201E-05   -0.18640E-06  6224   0.255E-03
  16 F= -.15952081E+04 E0= -.15951915E+04  d E =-.176649E-04
       N       E                     dE             d eps       ncg     rms          rms(c)
DAV:   1    -0.159520824882E+04   -0.13155E-03   -0.11162E-02 11752   0.137E-01    0.155E-02
DAV:   2    -0.159520824379E+04    0.50306E-05   -0.10137E-04 15104   0.134E-02    0.109E-02
DAV:   3    -0.159520823972E+04    0.40765E-05   -0.13554E-05  7492   0.723E-03    0.833E-03
DAV:   4    -0.159520823404E+04    0.56751E-05   -0.66368E-06  6272   0.531E-03    0.405E-03
DAV:   5    -0.159520823074E+04    0.33001E-05   -0.36369E-06  6222   0.377E-03
  17 F= -.15952082E+04 E0= -.15951916E+04  d E =-.110744E-03
       N       E                     dE             d eps       ncg     rms          rms(c)
DAV:   1    -0.159520832710E+04   -0.93063E-04   -0.11474E-02 11748   0.138E-01    0.130E-02
DAV:   2    -0.159520833490E+04   -0.77978E-05   -0.96461E-05 15280   0.125E-02    0.100E-02
DAV:   3    -0.159520833451E+04    0.38773E-06   -0.76625E-06  6846   0.536E-03    0.719E-03
DAV:   4    -0.159520833477E+04   -0.25172E-06   -0.65039E-06  6248   0.481E-03    0.156E-03
DAV:   5    -0.159520833476E+04    0.72546E-08   -0.16602E-06  6224   0.287E-03
  18 F= -.15952083E+04 E0= -.15951917E+04  d E =-.104018E-03
       N       E                     dE             d eps       ncg     rms          rms(c)
DAV:   1    -0.159520847022E+04   -0.13545E-03   -0.27660E-02 11740   0.215E-01    0.222E-02
DAV:   2    -0.159520847085E+04   -0.62843E-06   -0.24660E-04 17088   0.199E-02    0.160E-02
DAV:   3    -0.159520846364E+04    0.72105E-05   -0.19397E-05  8076   0.855E-03    0.117E-02
DAV:   4    -0.159520845529E+04    0.83515E-05   -0.12588E-05  7152   0.775E-03    0.541E-03
DAV:   5    -0.159520845131E+04    0.39803E-05   -0.64971E-06  6268   0.540E-03
  19 F= -.15952085E+04 E0= -.15951918E+04  d E =-.116548E-03
       N       E                     dE             d eps       ncg     rms          rms(c)
DAV:   1    -0.159520842987E+04    0.25422E-04   -0.18537E-03 11768   0.587E-02    0.117E-02
DAV:   2    -0.159520843442E+04   -0.45512E-05   -0.16576E-05  6160   0.683E-03    0.625E-03
DAV:   3    -0.159520843747E+04   -0.30490E-05   -0.64601E-06  6140   0.548E-03    0.460E-03
DAV:   4    -0.159520844030E+04   -0.28383E-05   -0.31569E-06  6152   0.404E-03    0.188E-03
DAV:   5    -0.159520844254E+04   -0.22364E-05   -0.16610E-06  6144   0.231E-03
  20 F= -.15952084E+04 E0= -.15951918E+04  d E =0.876637E-05
       N       E                     dE             d eps       ncg     rms          rms(c)
DAV:   1    -0.159520851232E+04   -0.72021E-04   -0.80434E-03 11748   0.116E-01    0.106E-02
DAV:   2    -0.159520851375E+04   -0.14248E-05   -0.52833E-05 11440   0.101E-02    0.807E-03
DAV:   3    -0.159520851253E+04    0.12169E-05   -0.82206E-06  6214   0.513E-03    0.529E-03
DAV:   4    -0.159520851083E+04    0.17034E-05   -0.44304E-06  6224   0.422E-03    0.143E-03
DAV:   5    -0.159520851073E+04    0.10167E-06   -0.16568E-06  6118   0.270E-03
  21 F= -.15952085E+04 E0= -.15951919E+04  d E =-.681873E-04
       N       E                     dE             d eps       ncg     rms          rms(c)
DAV:   1    -0.159520863891E+04   -0.12808E-03   -0.59508E-02 11716   0.314E-01    0.295E-02
DAV:   2    -0.159520867354E+04   -0.34624E-04   -0.49666E-04 17080   0.278E-02    0.224E-02
DAV:   3    -0.159520866800E+04    0.55404E-05   -0.36762E-05  9586   0.105E-02    0.127E-02
DAV:   4    -0.159520866662E+04    0.13748E-05   -0.21653E-05  8208   0.103E-02    0.416E-03
DAV:   5    -0.159520866602E+04    0.60555E-06   -0.64743E-06  6442   0.618E-03
  22 F= -.15952087E+04 E0= -.15951920E+04  d E =-.155287E-03
       N       E                     dE             d eps       ncg     rms          rms(c)
DAV:   1    -0.159520859906E+04    0.67559E-04   -0.21066E-02 11728   0.188E-01    0.205E-02
DAV:   2    -0.159520859209E+04    0.69726E-05   -0.16398E-04 16512   0.169E-02    0.144E-02
DAV:   3    -0.159520858382E+04    0.82735E-05   -0.14851E-05  7586   0.731E-03    0.969E-03
DAV:   4    -0.159520857550E+04    0.83143E-05   -0.96052E-06  6696   0.717E-03    0.388E-03
DAV:   5    -0.159520857271E+04    0.27862E-05   -0.42324E-06  6056   0.449E-03
  23 F= -.15952086E+04 E0= -.15951919E+04  d E =0.933005E-04
       N       E                     dE             d eps       ncg     rms          rms(c)
DAV:   1    -0.159520864259E+04   -0.67093E-04   -0.13674E-02 11728   0.151E-01    0.142E-02
DAV:   2    -0.159520864975E+04   -0.71573E-05   -0.99385E-05 14856   0.131E-02    0.108E-02
DAV:   3    -0.159520864916E+04    0.59498E-06   -0.98820E-06  6370   0.579E-03    0.635E-03
DAV:   4    -0.159520864955E+04   -0.39381E-06   -0.66492E-06  6240   0.539E-03    0.189E-03
DAV:   5    -0.159520864935E+04    0.19771E-06   -0.17954E-06  6030   0.299E-03
  24 F= -.15952086E+04 E0= -.15951920E+04  d E =-.766374E-04
       N       E                     dE             d eps       ncg     rms          rms(c)
DAV:   1    -0.159520872241E+04   -0.72860E-04   -0.26451E-02 11724   0.209E-01    0.195E-02
DAV:   2    -0.159520873398E+04   -0.11571E-04   -0.22410E-04 17040   0.186E-02    0.149E-02
DAV:   3    -0.159520872919E+04    0.47890E-05   -0.13500E-05  7470   0.690E-03    0.927E-03
DAV:   4    -0.159520872549E+04    0.37030E-05   -0.10585E-05  6888   0.705E-03    0.301E-03
DAV:   5    -0.159520872485E+04    0.64320E-06   -0.33922E-06  6128   0.448E-03
  25 F= -.15952087E+04 E0= -.15951921E+04  d E =-.754937E-04
       N       E                     dE             d eps       ncg     rms          rms(c)
DAV:   1    -0.159520868734E+04    0.38153E-04   -0.55310E-03 11732   0.970E-02    0.126E-02
DAV:   2    -0.159520869207E+04   -0.47288E-05   -0.34466E-05  8400   0.930E-03    0.786E-03
DAV:   3    -0.159520869451E+04   -0.24493E-05   -0.10641E-05  6086   0.608E-03    0.551E-03
DAV:   4    -0.159520869686E+04   -0.23470E-05   -0.50481E-06  5984   0.476E-03    0.246E-03
DAV:   5    -0.159520869872E+04   -0.18619E-05   -0.28307E-06  5984   0.309E-03
  26 F= -.15952087E+04 E0= -.15951921E+04  d E =0.261227E-04
       N       E                     dE             d eps       ncg     rms          rms(c)
DAV:   1    -0.159520874786E+04   -0.51002E-04   -0.84385E-03 11732   0.119E-01    0.116E-02
DAV:   2    -0.159520874575E+04    0.21106E-05   -0.54957E-05 11816   0.105E-02    0.846E-03
DAV:   3    -0.159520874339E+04    0.23637E-05   -0.82719E-06  6094   0.527E-03    0.594E-03
DAV:   4    -0.159520874005E+04    0.33397E-05   -0.42131E-06  6032   0.428E-03    0.219E-03
DAV:   5    -0.159520873903E+04    0.10176E-05   -0.19757E-06  5984   0.293E-03
  27 F= -.15952087E+04 E0= -.15951921E+04  d E =-.403089E-04
       N       E                     dE             d eps       ncg     rms          rms(c)
DAV:   1    -0.159520876351E+04   -0.23461E-04   -0.49322E-03 11732   0.903E-02    0.841E-03
DAV:   2    -0.159520876619E+04   -0.26759E-05   -0.30464E-05  8896   0.815E-03    0.624E-03
DAV:   3    -0.159520876687E+04   -0.68078E-06   -0.89738E-06  6182   0.478E-03    0.385E-03
DAV:   4    -0.159520876762E+04   -0.75591E-06   -0.52028E-06  5984   0.408E-03    0.878E-04
DAV:   5    -0.159520876772E+04   -0.97062E-07   -0.24838E-06  5984   0.275E-03
  28 F= -.15952088E+04 E0= -.15951921E+04  d E =-.286883E-04
       N       E                     dE             d eps       ncg     rms          rms(c)
DAV:   1    -0.159520877927E+04   -0.11647E-04   -0.45554E-04 11760   0.300E-02    0.709E-03
DAV:   2    -0.159520877126E+04    0.80147E-05   -0.74788E-06  5984   0.443E-03    0.342E-03
DAV:   3    -0.159520876864E+04    0.26173E-05   -0.32707E-06  5970   0.371E-03    0.242E-03
DAV:   4    -0.159520876647E+04    0.21713E-05   -0.14033E-06  5984   0.260E-03    0.119E-03
DAV:   5    -0.159520876499E+04    0.14751E-05   -0.84485E-07  5984   0.165E-03
  29 F= -.15952088E+04 E0= -.15951921E+04  d E =0.272828E-05
       N       E                     dE             d eps       ncg     rms          rms(c)
DAV:   1    -0.159520877229E+04   -0.58220E-05   -0.48377E-04 11752   0.295E-02    0.527E-03
DAV:   2    -0.159520877539E+04   -0.31036E-05   -0.46284E-06  5954   0.345E-03    0.289E-03
DAV:   3    -0.159520877694E+04   -0.15423E-05   -0.19750E-06  5944   0.265E-03    0.204E-03
DAV:   4    -0.159520877827E+04   -0.13360E-05   -0.90783E-07  5954   0.194E-03    0.989E-04
DAV:   5    -0.159520877929E+04   -0.10176E-05   -0.53383E-07  5952   0.127E-03
  30 F= -.15952088E+04 E0= -.15951921E+04  d E =-.142966E-04
       N       E                     dE             d eps       ncg     rms          rms(c)
DAV:   1    -0.159520878998E+04   -0.11713E-04   -0.11578E-03 11732   0.437E-02    0.424E-03
DAV:   2    -0.159520879033E+04   -0.34306E-06   -0.66690E-06  5942   0.407E-03    0.312E-03
DAV:   3    -0.159520879038E+04   -0.50808E-07   -0.24481E-06  5932   0.250E-03    0.191E-03
DAV:   4    -0.159520879038E+04    0.71077E-09   -0.14982E-06  5942   0.216E-03    0.480E-04
DAV:   5    -0.159520879043E+04   -0.48699E-07   -0.75415E-07  5942   0.151E-03
  31 F= -.15952088E+04 E0= -.15951921E+04  d E =-.111373E-04
       N       E                     dE             d eps       ncg     rms          rms(c)
DAV:   1    -0.159520882689E+04   -0.36508E-04   -0.43121E-02 11708   0.267E-01    0.248E-02
DAV:   2    -0.159520884875E+04   -0.21861E-04   -0.35931E-04 17096   0.238E-02    0.190E-02
DAV:   3    -0.159520884221E+04    0.65405E-05   -0.23176E-05  8272   0.902E-03    0.109E-02
DAV:   4    -0.159520883874E+04    0.34656E-05   -0.17069E-05  7824   0.913E-03    0.345E-03
DAV:   5    -0.159520883820E+04    0.53867E-06   -0.46719E-06  6280   0.530E-03
  32 F= -.15952088E+04 E0= -.15951922E+04  d E =-.477755E-04
       N       E                     dE             d eps       ncg     rms          rms(c)
DAV:   1    -0.159520884151E+04   -0.27661E-05   -0.31207E-02 11716   0.227E-01    0.206E-02
DAV:   2    -0.159520885881E+04   -0.17308E-04   -0.26634E-04 17152   0.204E-02    0.159E-02
DAV:   3    -0.159520885478E+04    0.40345E-05   -0.14913E-05  7640   0.752E-03    0.102E-02
DAV:   4    -0.159520885207E+04    0.27103E-05   -0.12925E-05  7056   0.757E-03    0.303E-03
DAV:   5    -0.159520885167E+04    0.40017E-06   -0.38512E-06  6272   0.483E-03
  33 F= -.15952089E+04 E0= -.15951922E+04  d E =-.134682E-04
